     512
 i =        0, time =        0.000, E =     -5900.0593094231
 Cs         0.0004551830       -0.0005066632        0.0003254421
  P         0.0004988495       -0.0009319015        0.0015690838
  O        -0.0020608444       -0.0008877030        0.0001266860
  O         0.0004688521        0.0006768005       -0.0015055782
  O        -0.0013250427        0.0006799453       -0.0013377918
  O        -0.0025202073        0.0019078795        0.0013473188
  H         0.0020887098       -0.0004167764       -0.0011514697
  H         0.0004243886       -0.0010513986       -0.0015455162
 Cs         0.0005932198        0.0004148855       -0.0001061027
  P         0.0010613354       -0.0015392777        0.0022635364
  O        -0.0022565605        0.0014286913       -0.0000491440
  O        -0.0007577024       -0.0019458485       -0.0023572069
  O         0.0005965462        0.0005061017        0.0035135428
  O        -0.0029804460        0.0017080600       -0.0002399384
  H         0.0020043342       -0.0013280689       -0.0007969778
  H        -0.0002032871       -0.0007329244       -0.0012692913
 Cs        -0.0002468229       -0.0002391643       -0.0000227348
  P         0.0005867640       -0.0021159340        0.0017032417
  O        -0.0003807973        0.0030348068        0.0006906101
  O         0.0016528225        0.0010630807       -0.0010511452
  O        -0.0023723053        0.0006393917        0.0025867054
  O        -0.0079499893        0.0018549236        0.0015288901
  H         0.0024294377        0.0000279922       -0.0015567013
  H         0.0005845981       -0.0001093089       -0.0009514003
 Cs         0.0009885773        0.0002485189        0.0002187862
  P         0.0018462133       -0.0010827616        0.0013781230
  O        -0.0010356018        0.0017323837        0.0017330049
  O        -0.0035130043       -0.0014988553        0.0000117502
  O        -0.0036039251        0.0003762846        0.0018650092
  O         0.0061628148        0.0028385461       -0.0038797626
  H         0.0013733948       -0.0001231412       -0.0015107150
  H        -0.0008736786       -0.0009180993        0.0007574423
 Cs         0.0004133726        0.0001913728        0.0003693173
  P         0.0011337992       -0.0009670401        0.0007933052
  O        -0.0020171781       -0.0016758976       -0.0004358097
  O         0.0015235610        0.0010438395       -0.0009802092
  O        -0.0018524683        0.0008576309       -0.0024848402
  O        -0.0028915116        0.0026505724        0.0006858047
  H         0.0016872818        0.0002417492       -0.0016581730
  H         0.0002478769       -0.0006722968       -0.0012046561
 Cs         0.0001626656        0.0003571970        0.0001664731
  P         0.0008123818       -0.0010347437        0.0018738657
  O        -0.0017427717        0.0018994731        0.0000453775
  O         0.0007249251        0.0030695993       -0.0012645031
  O        -0.0002757600        0.0005490023        0.0008996847
  O        -0.0030825888        0.0016629787        0.0013006668
  H         0.0017687546       -0.0006158614       -0.0012220906
  H         0.0004313152       -0.0005785410       -0.0015652500
 Cs         0.0003354916       -0.0006439957        0.0003372790
  P         0.0021054671       -0.0014658048        0.0002822149
  O        -0.0027474481       -0.0048827991       -0.0001205704
  O         0.0000814988        0.0007762750        0.0002503697
  O        -0.0001919250        0.0001481244       -0.0008925561
  O        -0.0012655313        0.0021373507       -0.0015624890
  H         0.0013514068       -0.0001480798       -0.0016232020
  H        -0.0004231359        0.0001187982        0.0008155813
 Cs         0.0001561190       -0.0002768811        0.0003506937
  P         0.0008820322       -0.0011473242        0.0022750445
  O        -0.0008997607        0.0005378849        0.0003670264
  O         0.0047468633       -0.0051107421       -0.0011123466
  O        -0.0007097605        0.0018975029        0.0038242393
  O        -0.0041410495        0.0025099509       -0.0023179784
  H         0.0018786857       -0.0000665070       -0.0012926332
  H         0.0005040278       -0.0003313051       -0.0012425672
 Cs         0.0002659167        0.0006021177       -0.0001092331
  P         0.0018988856       -0.0013255651        0.0003083584
  O        -0.0024607760        0.0001097912        0.0032047847
  O        -0.0009036695        0.0014170884        0.0017156558
  O        -0.0020383019       -0.0000020263       -0.0009345095
  O         0.0005280261        0.0007692964       -0.0066649291
  H         0.0010069688        0.0006773908       -0.0014414611
  H        -0.0004107579       -0.0007453805        0.0011081695
 Cs         0.0009110590        0.0000759867        0.0002672818
  P         0.0011099703       -0.0011286937        0.0001912239
  O        -0.0032522915        0.0007594637        0.0002428486
  O         0.0001252688        0.0004158289       -0.0006641369
  O        -0.0007443463        0.0000160511        0.0025277974
  O         0.0051443821        0.0025646599       -0.0117130770
  H         0.0010235865        0.0001839642       -0.0013675439
  H        -0.0009607827       -0.0006320013        0.0003979344
 Cs         0.0007972554       -0.0002857687        0.0002833545
  P         0.0008846762       -0.0010727955        0.0012594225
  O        -0.0018616837        0.0021509904        0.0001005722
  O         0.0020069361       -0.0001625967       -0.0016528401
  O        -0.0020568445        0.0005964868        0.0011958751
  O        -0.0079449179        0.0012946731        0.0048274997
  H         0.0021376938        0.0004764860       -0.0016854061
  H         0.0006187400       -0.0018980976       -0.0014610458
 Cs        -0.0001050610        0.0006149297       -0.0000869686
  P         0.0016328544       -0.0004801347        0.0010436004
  O        -0.0007168904       -0.0009429357        0.0011029429
  O        -0.0019487141        0.0024961061       -0.0019229794
  O        -0.0029886903        0.0004571000       -0.0001813089
  O         0.0070263362        0.0018328368        0.0060506096
  H         0.0010398569       -0.0003500942       -0.0011655279
  H        -0.0012419120       -0.0017826697       -0.0006122627
 Cs         0.0006774623       -0.0000621263        0.0003046903
  P         0.0014608300       -0.0016999654        0.0021689057
  O        -0.0011674604        0.0004509466       -0.0011863396
  O         0.0039908019       -0.0003170209       -0.0016925601
  O        -0.0023382972       -0.0003649763        0.0014963763
  O        -0.0008759177        0.0023218719       -0.0002646600
  H         0.0019913567       -0.0010894249       -0.0001491347
  H         0.0003481089       -0.0003930241       -0.0011616508
 Cs         0.0008638068        0.0001009552        0.0002287279
  P         0.0011448659       -0.0016727755        0.0017747387
  O         0.0004474119        0.0025363859        0.0004315572
  O        -0.0010374542        0.0015387216       -0.0015033640
  O        -0.0016124824       -0.0014468182        0.0008013290
  O        -0.0037503802        0.0016044294       -0.0010356079
  H         0.0021134584       -0.0005530157       -0.0014100923
  H         0.0003005888       -0.0002163283       -0.0010076702
 Cs         0.0005044641        0.0000120514       -0.0000089422
  P         0.0017888653       -0.0003328795        0.0009594155
  O        -0.0035241097       -0.0001059370        0.0034386412
  O        -0.0024054801        0.0005443311       -0.0012410657
  O        -0.0029443976        0.0006024499        0.0036383828
  O         0.0058235234       -0.0003478229       -0.0019840638
  H         0.0013874397        0.0002906424       -0.0015133436
  H        -0.0010872177       -0.0010988132        0.0003579726
 Cs        -0.0001246024       -0.0000255059        0.0001340108
  P         0.0012674041       -0.0018650457        0.0021143848
  O        -0.0043531916        0.0018931702       -0.0009521312
  O         0.0006497495        0.0003962336       -0.0003951124
  O        -0.0007022228        0.0018647467        0.0000466069
  O         0.0014719307        0.0032669289        0.0015790031
  H         0.0021788632       -0.0013879840        0.0000133984
  H         0.0001923978       -0.0004042110       -0.0015225444
 Cs         0.0011807064       -0.0004694233        0.0007006785
  P         0.0011885341       -0.0022230448        0.0022536377
  O        -0.0006151214       -0.0003086609        0.0014053480
  O        -0.0041384493        0.0003245689       -0.0028160042
  O        -0.0013173364       -0.0017055540       -0.0014801516
  O        -0.0000906256        0.0011933385        0.0013480672
  H         0.0021286164       -0.0011691604       -0.0008588955
  H         0.0002585294       -0.0004422531       -0.0010427601
 Cs         0.0005461907       -0.0000739468       -0.0002182430
  P         0.0014722684       -0.0008090770        0.0013314097
  O        -0.0024593385       -0.0003178389        0.0008560052
  O         0.0002263178        0.0006225738       -0.0025417194
  O        -0.0037445443       -0.0002530617        0.0004326033
  O         0.0032583439        0.0013675514        0.0023452725
  H         0.0016805827        0.0000863547       -0.0015554033
  H        -0.0011832753       -0.0015487611       -0.0005967439
 Cs         0.0001869731        0.0007572144       -0.0005759663
  P         0.0004437492       -0.0015008769        0.0023555724
  O        -0.0016258416        0.0003726685        0.0006556004
  O         0.0006620733        0.0042976485       -0.0004204201
  O        -0.0009383631        0.0000915528       -0.0009479883
  O         0.0009813372        0.0026800118       -0.0009295471
  H         0.0020419539       -0.0010919052       -0.0004466092
  H        -0.0000641911       -0.0017001206       -0.0017280963
 Cs        -0.0002378631       -0.0002870061        0.0004866343
  P         0.0014240802       -0.0024479423        0.0016372044
  O        -0.0014837623        0.0003109019        0.0017969571
  O         0.0036423210       -0.0041075439       -0.0012520532
  O        -0.0016395081        0.0001522773        0.0026766655
  O        -0.0050187002        0.0018700873        0.0011282385
  H         0.0021598684       -0.0003979479       -0.0014141638
  H         0.0006217074       -0.0003018294       -0.0008371609
 Cs        -0.0004609803       -0.0005634821        0.0002251025
  P         0.0014976188       -0.0021223938        0.0025912146
  O        -0.0027509324        0.0018294536        0.0000536733
  O         0.0001214896       -0.0022805225       -0.0007396475
  O         0.0003612508        0.0005605884       -0.0011857020
  O        -0.0016932348        0.0027081996       -0.0006292945
  H         0.0018731342       -0.0013617285        0.0001420477
  H         0.0001837388        0.0000202779       -0.0014789754
 Cs         0.0005437609        0.0001307173        0.0003686273
  P         0.0012691887       -0.0023691409        0.0011864262
  O        -0.0024297541        0.0021412047        0.0021617376
  O         0.0010588635        0.0033938903       -0.0029696898
  O        -0.0036842576        0.0001005112       -0.0004695727
  O         0.0040366007        0.0032049023        0.0064939490
  H         0.0021921860       -0.0000176674       -0.0017049458
  H        -0.0003495887       -0.0000437344       -0.0006210180
 Cs         0.0004714300       -0.0005673374        0.0001350388
  P         0.0010091567       -0.0016061053        0.0025256306
  O        -0.0027899949        0.0018453645       -0.0012223384
  O        -0.0007779038       -0.0008368783       -0.0024702566
  O        -0.0008617302        0.0010159546        0.0025201971
  O         0.0007596307        0.0017063981       -0.0008123624
  H         0.0019693537       -0.0013475124       -0.0001755263
  H         0.0002234589       -0.0003425322       -0.0012517396
 Cs         0.0002146474       -0.0000039384        0.0007008985
  P         0.0010279790       -0.0014652454        0.0019369167
  O        -0.0015327667        0.0009427381       -0.0001358679
  O         0.0015291010       -0.0014881957       -0.0010563745
  O        -0.0009608037        0.0012396405       -0.0019204962
  O        -0.0004204522        0.0006773368        0.0004493903
  H         0.0018220689       -0.0006353309       -0.0012312715
  H        -0.0002791343       -0.0006119825       -0.0009765228
 Cs        -0.0000238912        0.0002891149        0.0000362692
  P         0.0013420948       -0.0016212973        0.0015484331
  O        -0.0015784905       -0.0004289791        0.0016219716
  O        -0.0015954227        0.0000495119       -0.0015915871
  O        -0.0007092443       -0.0004102490        0.0003374482
  O        -0.0011837597        0.0013138228        0.0002475877
  H         0.0014516031       -0.0002967326       -0.0013366894
  H         0.0000362813       -0.0007072958       -0.0012728622
 Cs         0.0006099343        0.0006946624       -0.0003986521
  P         0.0014465888       -0.0016785120        0.0025140470
  O        -0.0033588025        0.0012424915        0.0006169160
  O        -0.0001525561       -0.0009452856       -0.0015902430
  O        -0.0013990783        0.0018733812        0.0015043408
  O         0.0011621051        0.0016650271        0.0028848279
  H         0.0019340815       -0.0011848407       -0.0007057935
  H         0.0003489301       -0.0000402940       -0.0013012483
 Cs         0.0001575731       -0.0009991105        0.0005514736
  P         0.0015188850       -0.0018456762        0.0020989156
  O        -0.0010534944        0.0005060922       -0.0002131629
  O         0.0032821604       -0.0032207759       -0.0026586239
  O        -0.0008227160       -0.0003571376        0.0018002912
  O         0.0011795345        0.0021964889        0.0019505874
  H         0.0009158836       -0.0008615262       -0.0010787532
  H        -0.0003870828        0.0000258324       -0.0007210991
 Cs         0.0001778324        0.0001376085       -0.0001110376
  P         0.0009186448       -0.0008253801        0.0015243237
  O        -0.0030109211        0.0044061925        0.0017145777
  O        -0.0033526809       -0.0013895661       -0.0013696854
  O        -0.0005572842       -0.0001653763        0.0014429227
  O        -0.0046820378        0.0037047512        0.0017937482
  H         0.0021562297       -0.0003975632       -0.0016301894
  H        -0.0001478858       -0.0013405858       -0.0014300453
 Cs        -0.0000045710        0.0001552730        0.0006475758
  P         0.0020468140       -0.0014848910        0.0000548982
  O        -0.0009476315        0.0019751511        0.0006416457
  O        -0.0009807235        0.0008299797        0.0021052941
  O        -0.0014625317       -0.0021325582       -0.0006023335
  O         0.0036094445        0.0013217112       -0.0112842424
  H         0.0009008928        0.0000140316       -0.0015958725
  H        -0.0007272615       -0.0003069678        0.0007285668
 Cs         0.0003343424        0.0000575690       -0.0002934552
  P         0.0007364858       -0.0004785704        0.0019893161
  O        -0.0010883688       -0.0008811399        0.0003997864
  O         0.0027412608       -0.0072297827       -0.0025049697
  O         0.0004808100        0.0012502393        0.0013463323
  O        -0.0026767439        0.0028598159        0.0021846841
  H         0.0017318064       -0.0001952118       -0.0011325006
  H         0.0004057259       -0.0012480503       -0.0015062043
 Cs         0.0005920195       -0.0000774990        0.0000421603
  P         0.0011980292       -0.0023581244        0.0018415331
  O        -0.0000665793        0.0007576676        0.0008575357
  O         0.0019447416       -0.0033611564       -0.0012089064
  O        -0.0020976593        0.0003405446        0.0019499693
  O        -0.0027796502        0.0029082051        0.0005211639
  H         0.0016840476       -0.0006427736       -0.0011965276
  H         0.0004080273       -0.0001262360       -0.0014304289
 Cs        -0.0001607029        0.0007307792        0.0001334733
  P         0.0019779204       -0.0013470227       -0.0002267957
  O        -0.0027648762       -0.0017869121        0.0006971371
  O        -0.0020493792       -0.0000406094        0.0008843653
  O        -0.0008339414        0.0005179471        0.0062390327
  O         0.0029720604        0.0023675814       -0.0082465813
  H         0.0012893696        0.0006571408       -0.0015135996
  H        -0.0004623785       -0.0005346541        0.0010104381
 Cs         0.0004525754       -0.0000655665        0.0001668604
  P         0.0011280336       -0.0014236362        0.0014855823
  O        -0.0022563904        0.0014470635        0.0008148560
  O        -0.0002810780        0.0023113309       -0.0026389375
  O        -0.0030588330       -0.0002723475        0.0012076332
  O         0.0061176826        0.0022919160        0.0059873817
  H         0.0017596102       -0.0001405130       -0.0013262635
  H        -0.0010963770       -0.0019262788       -0.0001019938
 Cs         0.0010875427       -0.0003500659        0.0004422606
  P         0.0010835420       -0.0019652867        0.0018140227
  O        -0.0034295198        0.0043154464        0.0009429877
  O         0.0013065895       -0.0042659777       -0.0007011435
  O        -0.0005822682        0.0008262403        0.0011235452
  O        -0.0047725432        0.0014374882        0.0014083265
  H         0.0024642995       -0.0005137329       -0.0013784797
  H         0.0003447772       -0.0004032653       -0.0014908917
 Cs         0.0006341643        0.0004318514        0.0002440539
  P         0.0012548347       -0.0009731718        0.0013645047
  O        -0.0014528131       -0.0006072496        0.0014299086
  O        -0.0000035986        0.0017899920       -0.0016290618
  O        -0.0033069148        0.0005490067        0.0017078198
  O         0.0050994344        0.0013352773        0.0032243558
  H         0.0014413408        0.0002957445       -0.0015271798
  H        -0.0010024326       -0.0018084206        0.0000828282
 Cs         0.0005573267        0.0001746875       -0.0001959364
  P         0.0006916696       -0.0010941476        0.0022145505
  O         0.0000324298        0.0011333776        0.0003039229
  O         0.0018385670       -0.0003058341       -0.0023862534
  O        -0.0003970422        0.0003310845        0.0019368735
  O        -0.0015988765        0.0016880153       -0.0006789471
  H         0.0020254174       -0.0005110568       -0.0009276478
  H         0.0003915126       -0.0003701317       -0.0013295610
 Cs         0.0005246963        0.0006335579        0.0003761535
  P         0.0016059847       -0.0019755091       -0.0006639276
  O        -0.0035370957       -0.0016905261        0.0011440305
  O        -0.0017875969       -0.0000103499        0.0000844644
  O        -0.0011051511       -0.0002737689        0.0008398548
  O         0.0018849094        0.0026976130       -0.0034768311
  H         0.0017907232        0.0005256163       -0.0016349721
  H        -0.0000691134        0.0002182255        0.0009026267
 Cs         0.0001964698        0.0004912522       -0.0006619760
  P         0.0004786501       -0.0007967957        0.0015042095
  O        -0.0031251570        0.0013740741       -0.0000735514
  O         0.0015899281        0.0002709212       -0.0010183226
  O         0.0013313951        0.0004008742       -0.0011775884
  O        -0.0024253119        0.0029504444        0.0014882281
  H         0.0024940947       -0.0004028662       -0.0011758337
  H         0.0002583476       -0.0016610266       -0.0016288858
 Cs         0.0002654119        0.0003830011        0.0000055044
  P         0.0022482411       -0.0012611814        0.0008464125
  O        -0.0016587617        0.0020770827       -0.0003192723
  O        -0.0012899783        0.0029215983       -0.0011585054
  O        -0.0030567470       -0.0002776001        0.0003758514
  O         0.0031355387        0.0022512065        0.0011511481
  H         0.0006451634       -0.0000098523       -0.0012887953
  H        -0.0008861195       -0.0008857163        0.0002325481
 Cs         0.0003767381        0.0001584263        0.0002236409
  P         0.0011215002       -0.0015536960        0.0019748281
  O        -0.0035453323        0.0008193193        0.0006953592
  O         0.0020970095       -0.0016940103       -0.0013893620
  O        -0.0013315362        0.0008382426        0.0020165841
  O        -0.0046108792        0.0026287638        0.0022470239
  H         0.0018289324       -0.0004993589       -0.0014629789
  H         0.0000294464       -0.0000231280       -0.0010371821
 Cs        -0.0000241912        0.0001770060        0.0002059378
  P         0.0015935115       -0.0017635033        0.0015839873
  O        -0.0011575665        0.0025552110        0.0018594806
  O         0.0025320534        0.0004792668       -0.0034631492
  O         0.0000462425        0.0004674511        0.0002892290
  O        -0.0025373779        0.0025538888        0.0006609816
  H         0.0016052760       -0.0002958734       -0.0014556206
  H         0.0005130276       -0.0013502077       -0.0015801192
 Cs         0.0002701156        0.0003469603        0.0001030387
  P         0.0013234594       -0.0011348730        0.0018569569
  O        -0.0037396021       -0.0003444537       -0.0000056078
  O        -0.0012911190        0.0020114114       -0.0012453004
  O        -0.0012381568       -0.0013285624        0.0005444639
  O         0.0041799796        0.0019816806        0.0047725583
  H         0.0014277270        0.0000807203       -0.0015372027
  H        -0.0010072405       -0.0010591647       -0.0003572775
 Cs        -0.0005362535        0.0002121555        0.0002619666
  P         0.0012044133       -0.0021524593        0.0031551902
  O        -0.0023670786        0.0060535923        0.0012993234
  O        -0.0000512901       -0.0055961948       -0.0025267238
  O        -0.0006459546        0.0020877375        0.0013107272
  O         0.0014989178        0.0032682544        0.0001282028
  H         0.0016748052        0.0008483431       -0.0013231096
  H         0.0005501038        0.0008145799        0.0004808190
 Cs         0.0003879069       -0.0001764170       -0.0000099194
  P         0.0011753710       -0.0015586279        0.0017423795
  O        -0.0043797565        0.0016106902       -0.0024810139
  O        -0.0008925556       -0.0027365610       -0.0001959267
  O        -0.0020858332        0.0006558681       -0.0024739175
  O         0.0012394440        0.0022319654        0.0007336215
  H         0.0026922270       -0.0010710209       -0.0004992063
  H         0.0001420940       -0.0011769328       -0.0013600553
 Cs        -0.0000002717       -0.0001877035        0.0001454695
  P         0.0007680640       -0.0011205786        0.0014109040
  O        -0.0052556329       -0.0005781683        0.0013393544
  O        -0.0001049986       -0.0015478463       -0.0016305854
  O        -0.0002892166        0.0010759600        0.0024421819
  O        -0.0022654019        0.0021007819        0.0003458062
  H         0.0020676513       -0.0004021540       -0.0014497589
  H         0.0001896049       -0.0008465541       -0.0014381698
 Cs         0.0007936875       -0.0001168425        0.0007639864
  P         0.0020039153       -0.0018394414        0.0016346038
  O        -0.0031936029        0.0010637475        0.0009319283
  O         0.0010207525       -0.0026552231       -0.0033444218
  O        -0.0019883371        0.0000037460       -0.0015361438
  O        -0.0009480684        0.0030629356        0.0009869201
  H         0.0020172647       -0.0005358054       -0.0012527167
  H        -0.0000357919        0.0000038053       -0.0009158975
 Cs         0.0007582926        0.0003201027        0.0003545507
  P         0.0012557896       -0.0004355773        0.0011227559
  O        -0.0025923977       -0.0005134392        0.0005115478
  O         0.0014584959        0.0001550357       -0.0008590618
  O        -0.0017080176        0.0024087363       -0.0001248333
  O         0.0012743047        0.0013016967        0.0017617169
  H         0.0012772930       -0.0001586765       -0.0011818878
  H        -0.0008634129       -0.0022957946       -0.0012789495
 Cs         0.0002234008        0.0008120894       -0.0002126719
  P         0.0007838409       -0.0009543887        0.0011591034
  O        -0.0016784709        0.0001232367        0.0005700440
  O         0.0005087121       -0.0001667143       -0.0008819579
  O        -0.0005596035        0.0002591778       -0.0013106702
  O        -0.0013498568        0.0019221001       -0.0006455757
  H         0.0016785857       -0.0003138888       -0.0012537767
  H         0.0000960855       -0.0006840930       -0.0015321956
 Cs         0.0006883697        0.0001559015       -0.0002197736
  P         0.0010149203       -0.0015510660        0.0017213696
  O        -0.0021139809        0.0023372957        0.0033590035
  O        -0.0002548597       -0.0024856619       -0.0007897686
  O        -0.0014350353        0.0007538335        0.0006192377
  O        -0.0014822572        0.0025304335       -0.0001248421
  H         0.0020400212       -0.0005609094       -0.0016896858
  H        -0.0006114792       -0.0010364223       -0.0009988740
 Cs         0.0016526904        0.0002448428       -0.0001430777
  P         0.0008809515       -0.0016423046        0.0018067420
  O        -0.0036810670        0.0000856188        0.0006990113
  O         0.0015822688        0.0006232976       -0.0013391804
  O         0.0006953622        0.0010869302        0.0026889989
  O        -0.0002142154        0.0021603906        0.0008081044
  H         0.0022558143       -0.0006584010       -0.0009882394
  H        -0.0000398621       -0.0014000685       -0.0016124090
 Cs        -0.0002757091       -0.0006570455        0.0006045803
  P         0.0015352883       -0.0013788144        0.0018767219
  O        -0.0007129184        0.0002914437       -0.0001189138
  O         0.0016117450       -0.0040231564       -0.0010792602
  O        -0.0000556955       -0.0003465660        0.0004139693
  O        -0.0017323305        0.0029427442        0.0000208085
  H         0.0014554276       -0.0009065723       -0.0011738632
  H        -0.0006841226       -0.0011585661       -0.0011978096
 Cs         0.0011733970        0.0004145013        0.0002254301
  P         0.0011622010       -0.0020546628        0.0027191772
  O        -0.0016249580        0.0012688958       -0.0002222486
  O         0.0021853619       -0.0010980091       -0.0023273236
  O        -0.0025407363        0.0002191945        0.0024773057
  O        -0.0007747367        0.0023668740        0.0008784220
  H         0.0021296580       -0.0015457784       -0.0001388096
  H         0.0003321504       -0.0003372208       -0.0014037241
 Cs        -0.0001172949        0.0004701117        0.0005351114
  P         0.0009513353       -0.0019131683        0.0015711815
  O        -0.0012472236        0.0019187820        0.0006824597
  O        -0.0009575049        0.0014255411       -0.0012778050
  O        -0.0038132473        0.0002111657       -0.0019337387
  O         0.0038788225        0.0010998087        0.0027514120
  H         0.0016209070       -0.0001717161       -0.0014190756
  H        -0.0007929885       -0.0006198368       -0.0000167122
 Cs         0.0006762043       -0.0001575497        0.0007281581
  P         0.0011726848       -0.0020460720        0.0015177539
  O        -0.0048167068        0.0016805339        0.0012986400
  O         0.0016573414       -0.0003180923       -0.0011741936
  O        -0.0004307106       -0.0015286397        0.0054139575
  O         0.0090628395        0.0012004564       -0.0048740800
  H         0.0013350535       -0.0002590165       -0.0013762529
  H        -0.0011325911       -0.0013909732        0.0004098596
 Cs         0.0003786520       -0.0000511239        0.0004307015
  P         0.0012040479       -0.0016363699        0.0023130025
  O        -0.0000359232        0.0005751778       -0.0027289208
  O        -0.0022345406       -0.0005140483       -0.0017634018
  O        -0.0018989594       -0.0004174972        0.0018407060
  O        -0.0036345220        0.0025606428        0.0014191398
  H         0.0017481586       -0.0013262585       -0.0006839748
  H         0.0000052325       -0.0008991229       -0.0011909415
 Cs         0.0003470704       -0.0001037255        0.0000031678
  P         0.0008625430       -0.0013428331        0.0016607866
  O        -0.0012165165       -0.0014144039        0.0002184594
  O         0.0010126738        0.0018460518       -0.0008676703
  O        -0.0006189254        0.0001777212        0.0003272137
  O        -0.0000451733        0.0022018313       -0.0002552354
  H         0.0014601507       -0.0005737261       -0.0010928672
  H         0.0003820903       -0.0005626126       -0.0014686041
 Cs         0.0005223243       -0.0002584066        0.0002541833
  P         0.0010189593       -0.0021416301        0.0029043854
  O        -0.0042974838       -0.0024147621       -0.0006239649
  O         0.0010825954       -0.0001397021       -0.0010159383
  O         0.0002646804        0.0012139108       -0.0014930123
  O         0.0023402945        0.0035575098        0.0001293495
  H         0.0018782079       -0.0015350095        0.0000719792
  H         0.0006304362       -0.0003300771       -0.0013968943
 Cs         0.0008503658        0.0007166855        0.0002936901
  P         0.0012603869       -0.0028551563        0.0025020040
  O        -0.0043937485        0.0034530767       -0.0002614779
  O         0.0032885344       -0.0050019586       -0.0023218162