     512
 i =        0, time =        0.000, E =     -5900.0593094231
 Cs        -0.4257961354        5.4293102529        5.1214774129
  P         2.3060500978        2.3540863214        2.1713989360
  O         3.6158050673        3.0276770901        2.8419130525
  O         2.5898478587        1.7422592459        0.8337699406
  O         1.2332308307        3.4449252527        2.3188195381
  O         1.9111339668        1.1422602624        3.1914849676
  H         4.5350121480        2.9386063197        2.4357171750
  H         1.8745100515        0.2533331929        2.7511360509
 Cs        -0.4735234755        5.2260124016       10.0073545202
  P         2.3224840546        2.6127328423        7.1138210042
  O         3.5182279144        3.4334799019        7.8197741887
  O         2.6395115927        2.3153774577        5.6821255708
  O         1.0662747856        3.4479267769        7.3903229976
  O         2.3122780832        1.2321747018        8.0007974917
  H         4.4530220381        3.0775671771        7.6719187699
  H         2.0069892819        0.4053818916        7.5494135192
 Cs        -0.0324804119        5.2584183332       15.0779134354
  P         2.4790348480        2.5312202246       12.0953928319
  O         3.7447329409        2.9134264297       13.0078064305
  O         2.8411763020        2.3438360262       10.6548815632
  O         1.3301713414        3.4745059074       12.4488856449
  O         2.1150851539        1.0418578500       12.7471066117
  H         4.6472954967        3.0750893609       12.5467166962
  H         2.3396554264        0.3176028766       12.1310789164
 Cs        -0.3916946537        5.2735395663       19.9254895262
  P         2.2377198313        2.4854051541       17.2244483564
  O         3.4249863529        3.0023408307       18.2047601121
  O         2.5118867910        3.0024117526       15.8360673496
  O         0.9181581664        2.8018458324       17.8991413540
  O         2.4425017264        0.8658171113       17.1774469217
  H         4.3341364801        3.0778116527       17.7857552637
  H         1.8539596266        0.1915623488       17.5985801816
 Cs        -0.2563688627       10.2862016027        5.1447789578
  P         2.3399601540        7.4514776264        2.5377844127
  O         3.7266651422        7.7596843834        3.3276984127
  O         2.5424278137        7.2839823060        1.0599903233
  O         1.3315996968        8.5123677079        3.0078708346
  O         1.9079641675        6.0280644069        3.2229054878
  H         4.5593182866        7.9720209324        2.7997918417
  H         1.8327842039        5.2191006341        2.6488969470
 Cs        -0.3213324343       10.1221708033       10.0363318453
  P         2.2528373237        7.3466409299        7.3844377401
  O         3.5189596059        7.9547141536        8.1859390125
  O         2.6126993756        6.8038724775        6.0356291873
  O         1.1466318742        8.4090946617        7.4906095012
  O         1.8508500812        6.0870865964        8.3520936420
  H         4.4550418572        7.8281851140        7.8315501859
  H         1.7689651667        5.2297827125        7.8599604346
 Cs        -0.1057165546       10.5645202284       14.8911942188
  P         2.1900866579        7.6990891109       12.4306120084
  O         3.4914017364        8.0510336915       13.3298318056
  O         2.1576352894        8.6787746503       11.2671256062
  O         0.9613637399        7.6013897458       13.3110367740
  O         2.5372512661        6.2058577763       11.8298181008
  H         4.3473447533        8.1566372666       12.8079141996
  H         2.0659483336        5.4476625078       12.2530258788
 Cs        -0.0090330108       10.0868944028       19.8266916713
  P         2.3732791653        7.4111922240       17.1900195579
  O         3.6212554546        7.9588376664       18.0485113335
  O         2.7451026792        6.9620108272       15.8199045641
  O         1.2380910828        8.4362539517       17.3058014960
  O         1.9070572348        6.1065986659       18.0935042876
  H         4.5403351320        8.0260261643       17.6339980108
  H         2.2224735388        5.2737897095       17.6896564076
 Cs        -0.1368307560       15.2363520190        4.9349780175
  P         2.3879288688       12.4268512735        2.6719731275
  O         3.6961927465       12.4221805444        3.6383476414
  O         2.6054383284       13.4416448284        1.5688849244
  O         1.1224070017       12.5099590544        3.5037707410
  O         2.4396932106       10.9213152196        2.0257517003
  H         4.5347740097       12.7679775007        3.2075714561
  H         2.0384751675       10.1739283863        2.5562792306
 Cs        -0.1200837441       15.3055756523        9.8896126374
  P         2.2355080175       12.4709235532        7.5476219283
  O         3.5878320067       12.8101954637        8.3853482155
  O         2.2432047217       13.3488442582        6.3202711336
  O         0.9693148559       12.5138492059        8.3908118935
  O         2.5414176525       10.8772476000        7.2722616720
  H         4.4088427156       12.9586652310        7.8309375890
  H         1.8775389058       10.1696112072        7.4781366062
 Cs        -0.1789530297       15.2242156807       14.9167305355
  P         2.3642811205       12.4229882015       12.2930226566
  O         3.6431659394       12.7204281504       13.2405178151
  O         2.7368303983       12.4580871216       10.8492430920
  O         1.2132684576       13.3378486963       12.7529055730
  O         2.0157197084       10.9036670467       12.7515059968
  H         4.5204092862       12.8751721235       12.7616037727
  H         2.1319493252       10.1681340152       12.0702708492
 Cs         0.0224385114       15.0853780055       20.1141112109
  P         2.2714150617       12.3156602014       17.2689178508
  O         3.5282938832       12.9904333882       18.0728617044
  O         2.4120438634       12.5472359000       15.7944139227
  O         1.0227385649       12.7979521372       17.9893462269
  O         2.5424507548       10.7463830112       17.6068517221
  H         4.4247845346       12.9591271109       17.6280073596
  H         1.9228156011        9.9897346031       17.3721999085
 Cs        -0.3498346252       20.1211658492        5.0383352331
  P         2.4704132184       17.4629089428        2.1578561319
  O         3.6232110699       18.2626355335        2.9482501997
  O         2.8363840898       17.1780040762        0.7339911537
  O         1.2220881451       18.3068404981        2.4273190582
  O         2.3193472520       16.0150855489        2.9447286545
  H         4.5611426949       17.8915302649        3.0242377184
  H         2.4693647843       15.2325624399        2.3511148620
 Cs        -0.2340839488       20.3278948800        9.9845629615
  P         2.3909440914       17.4481946913        7.1324735533
  O         3.6438214817       18.0073882764        7.9583025481
  O         2.7089672895       17.1834831042        5.6926383811
  O         1.2301748410       18.3905749558        7.4690614186
  O         2.1172178243       15.9897672633        7.8791098426
  H         4.5708204053       17.9569824607        7.5482439929
  H         2.2014914272       15.2238964375        7.2574583403
 Cs        -0.1419531880       20.2342472887       14.9444692218
  P         2.4708341210       17.3019003949       12.2457028507
  O         3.6816857208       17.7646444634       13.2407442226
  O         2.8123855875       17.7882230484       10.8651693456
  O         1.1350536084       17.6634880761       12.8537320858
  O         2.6401810505       15.6778362982       12.3231384514
  H         4.5366494723       17.9933290068       12.7733254838
  H         1.9177419926       15.0312674798       12.5459187960
 Cs        -0.2211590154       20.1970855050       19.9716846579
  P         2.2382098370       17.2759410738       17.1588592755
  O         3.5995193787       18.0164107988       17.5755279501
  O         2.2550392583       16.7895573084       15.7387895434
  O         1.1419669337       18.2498726987       17.5993589976
  O         2.1254185862       15.9309693977       18.1133470255
  H         4.4995475239       17.5574041623       17.6600931931
  H         2.2588924870       15.1193776683       17.5877742340
 Cs         4.5770645562        4.9529136063        4.8932320605
  P         7.3811812565        2.6431984309        2.1017247565
  O         8.4835361877        3.5298963626        2.8810922703
  O         7.8627442852        2.3087073057        0.7219215435
  O         6.0924460445        3.4310432954        2.3110904519
  O         7.2746973363        1.2299966087        2.9499398506
  H         9.4509475283        3.2470673596        2.7444610651
  H         7.3542797042        0.4426887709        2.3535100113
 Cs         4.7653283069        5.2137185824        9.8876405630
  P         7.3917317377        2.4055040414        7.2032998598
  O         8.5654688134        2.9384020319        8.1879804688
  O         7.7686760713        2.6227399817        5.7629068193
  O         6.0705665561        3.0035090264        7.6691620558
  O         7.4910571580        0.8270453583        7.5982685132
  H         9.4669405788        3.0749825703        7.7682669365
  H         6.8684894788        0.1009664944        7.3133937128
 Cs         4.7271172070        4.9862762273       14.9502747589
  P         7.1876953230        2.4777975420       12.1541252230
  O         8.4802966807        3.3074988165       12.6557675321
  O         7.4092341451        1.7596925049       10.8543889104
  O         6.0919943917        3.5562656222       12.2376719470
  O         6.9099544247        1.3452201616       13.2938831878
  H         9.4307137449        2.9794200232       12.5527421793
  H         6.7483640427        0.4440406573       12.8801860031
 Cs         4.7925320842        5.3413952363       19.9488409703
  P         7.1786999215        2.8103640514       16.9798056612
  O         8.4754844041        3.2374039008       17.8284531943
  O         7.4062857737        3.0022644964       15.5102023061
  O         5.9891249713        3.5685439743       17.5719731269
  O         6.9759519311        1.2285542592       17.4019871161
  H         9.3915612463        3.1784775158       17.4001053289
  H         7.2254032461        0.4953927558       16.7853623813
 Cs         4.9368650540        9.8963975779        5.2564594559
  P         7.2501381600        7.5581859538        2.2222628912
  O         8.5657463156        8.3941041241        2.6418724260
  O         7.3614919374        6.9751067488        0.8469781269
  O         6.0996709987        8.5347645556        2.5006371722
  O         7.1663953427        6.3099972814        3.2959479751
  H         9.4575954171        7.9322220192        2.7871387824
  H         7.1928762837        5.4514557741        2.8191618626
 Cs         4.5956606882       10.2041334374        9.9342999967
  P         7.3433713420        7.4522680415        7.2155424891
  O         8.5689232148        7.8010497806        8.1960158141
  O         7.6927731550        7.7047496991        5.7790409887
  O         6.0864603383        8.1228803705        7.7587440905
  O         7.2927478366        5.8222308777        7.5107562223
  H         9.4785919143        7.9585237916        7.7565970136
  H         6.6357662998        5.2689259769        7.0540848112
 Cs         4.8352670006       10.3327256113       14.9707813452
  P         7.0228235916        7.5455347922       12.1081555152
  O         8.3627072933        8.2619710720       12.6514586532
  O         7.2002542777        6.9761069477       10.7335193144
  O         5.9333614882        8.5994464112       12.3311461119
  O         6.7753884108        6.2829026713       13.1364859840
  H         9.2631040075        7.7995624777       12.6383342084
  H         6.7078384241        5.4215081164       12.6497165713
 Cs         4.7322771363       10.1969227592       19.9263833187
  P         7.3631887267        7.6473885633       17.1966847993
  O         8.5768855979        8.2499545098       18.0687677091
  O         7.6895351493        7.5690465134       15.7334444966
  O         6.1335768558        8.4845390420       17.5778338094
  O         7.2728100881        6.1617508980       17.8687547655
  H         9.5246380934        8.1328927920       17.7393825988
  H         6.7893733463        5.4334376191       17.4146422589
 Cs         4.7641652318       15.1163215854        5.1436232478
  P         7.2647999206       12.5875158861        2.4940864091
  O         8.5751258660       13.1021482371        3.3022354656
  O         7.5688308266       12.4272751060        1.0319298252
  O         6.1244300643       13.5294226645        2.9010752556
  O         6.9692919799       11.1432905302        3.1933100654
  H         9.4713466421       13.0384414574        2.8568698736
  H         6.8357052604       10.3488574622        2.6236101497
 Cs         4.6814551044       15.0779540637       10.1434234981
  P         7.2480036342       12.4333278675        7.2455100919
  O         8.5373544071       13.2413824276        7.7720517068
  O         7.4603184603       11.8407864599        5.8877031564
  O         6.0840696182       13.3968687250        7.4743618888
  O         7.0705769903       11.1547382456        8.2889240142
  H         9.4691233676       12.8991519305        7.5851998188
  H         7.0433452201       10.3113969763        7.7911976234
 Cs         4.6649349704       15.0811771831       14.8882809383
  P         7.3419491330       12.7259019086       12.0869329674
  O         8.4759318637       13.4550675777       13.0049027735
  O         7.6958048945       12.8191596673       10.6370675695
  O         6.0227940808       13.3449654558       12.5258316406
  O         7.4864572656       11.1869251836       12.6539649573
  H         9.4215965784       13.3056102368       12.7282792509
  H         6.9041132326       10.4831187839       12.2864979094
 Cs         5.0209924234       14.9855650949       20.0052917683
  P         7.3894630432       12.4104231592       17.2066123006
  O         8.6326725051       13.0481423284       18.0016336493
  O         7.7501121837       12.0277703017       15.8006193120
  O         6.1922458411       13.3601786903       17.4061002080
  O         7.1602915837       11.0598963938       18.1162050351
  H         9.5420134750       13.0704345247       17.5305666612
  H         6.8774534190       10.2358123172       17.6469692152
 Cs         4.8153719602       20.2411408438        4.9373061080
  P         7.3427956550       17.6032737502        2.7532884026
  O         8.6875854245       17.8676804324        3.6317774679
  O         7.4643073441       18.4012995240        1.4701692930
  O         6.0976866762       17.8085236715        3.5861475067
  O         7.4912214127       16.0071318652        2.4132564893
  H         9.5154430714       17.9820576834        3.0774153160
  H         6.9443473979       15.3388406012        2.8899521491
 Cs         4.9289070574       20.0403977918        9.8438330978
  P         7.2155341709       17.2320986286        7.2201553270
  O         8.4798214360       17.8601839291        7.9960954163
  O         7.5620805832       16.6800631450        5.8802083055
  O         6.1190265778       18.3127409023        7.2941692149
  O         6.7701233405       16.0119051743        8.2059193236
  H         9.4027659045       17.8085744382        7.6078982025
  H         6.7210125137       15.1165324014        7.7731364436
 Cs         4.5260222018       20.1213349755       15.0386854077
  P         7.3298677703       17.6938156410       12.2774036200
  O         8.5855582700       18.2949642424       13.0967826935
  O         7.6911853995       17.3750851312       10.8616029204
  O         6.1704910974       18.6538232079       12.5520775285
  O         6.9701179525       16.3169545574       13.1103153527
  H         9.5224628441       18.1221970292       12.7525058128
  H         7.2278316838       15.4969252715       12.6444742824
 Cs         4.9231071484       19.8820474065       19.7574560775
  P         7.2717974146       17.3888759168       17.2673648178
  O         8.5604988268       17.4062807826       18.2628442902
  O         7.4587780835       18.4503393531       16.2078567569
  O         6.0070515665       17.3733429173       18.1040636130
  O         7.3555347192       15.9038731884       16.5835600148
  H         9.4287191165       17.6913687720       17.8216306957
  H         6.9694584717       15.1468398252       17.0984188560
 Cs         9.7105362687        5.2764176331        5.1374579662
  P        12.2635074491        2.5456403247        2.1735673984
  O        13.5266555476        3.0377721759        3.0745745586
  O        12.5281107602        2.8120273442        0.7207969712
  O        11.0390029478        3.1905959986        2.8108031244
  O        12.3473835114        0.9520539773        2.4475963898
  H        14.4495395018        3.0326236737        2.6804595634
  H        11.6944555656        0.1836559738        2.4221746050
 Cs         9.4227348639        5.1116594742       10.0898084539
  P        12.2707861148        2.7090501910        7.2563867560
  O        13.5195023599        3.3397594045        8.0177355629
  O        12.5492169300        2.4086475201        5.8121836276
  O        11.0708778418        3.6131513579        7.5649161163
  O        12.0229374436        1.3099250228        8.0912212491
  H        14.4829983519        3.2868503014        7.6607791933
  H        12.1304193895        0.4886057628        7.5734706086
 Cs         9.5523361477        5.2716562953       14.8754649860
  P        12.3074248236        2.5265592217       12.1789251095
  O        13.5362376199        2.9704475879       13.1392212597
  O        12.6325867681        2.8023258143       10.7416333638
  O        11.0374205154        3.1716786080       12.7433421941
  O        12.3479006789        0.9326930945       12.4546358554
  H        14.4099059132        3.1735886108       12.6911759675
  H        11.6637247552        0.2064741800       12.4536888961
 Cs         9.6799860133        5.0809421135       19.8535103275
  P        12.1094417197        2.4666161553       17.0212167839
  O        13.3550950710        3.2406971776       17.6732916562
  O        12.3994799897        1.8352503811       15.6961713978
  O        10.9559497038        3.4747115745       17.1083571138
  O        11.8278969966        1.2444291441       18.0924743982
  H        14.2988844223        3.1797525177       17.3169198344
  H        11.7465925637        0.3708389934       17.6349025111
 Cs         9.7174432613       10.1404306574        4.9243258424
  P        12.2208220146        7.6915294204        2.4781856237
  O        13.5187783332        7.6522124368        3.4368811153
  O        12.4077207887        8.7642345494        1.4277379852
  O        10.9672691541        7.6983628799        3.3284257011
  O        12.2544938620        6.2171992371        1.7252889272
  H        14.4204527795        7.8068752761        2.9936982669
  H        11.9771276367        5.4995475208        2.3334788071
 Cs         9.7839912593       10.0625693855       10.1064042779
  P        12.0784473523        7.3530089140        7.3773385981
  O        13.3231401868        7.9991150703        8.1428801253
  O        12.4165463745        6.7976314307        6.0251487315
  O        10.9618475479        8.4242113498        7.4625703302
  O        11.6603012313        6.1186686356        8.3549324915
  H        14.2792202671        7.9290795163        7.8129443850
  H        11.5697869717        5.2291084840        7.8988937525
 Cs         9.6125712791        9.9132612961       14.9140355596
  P        12.1077336962        7.3256376605       12.2638504140
  O        13.3712695255        7.8853256253       13.1318871093
  O        12.2270798489        7.7987788929       10.8491353669
  O        10.8209632898        7.5589939705       13.0388067412
  O        12.4489290827        5.7134175811       12.3263339004
  H        14.1912735305        8.0760356443       12.5980421715
  H        11.7409798966        5.0550928767       12.5164552243
 Cs         9.7137508213       10.3570058747       20.0117606612
  P        12.3557709800        7.5586519020       17.2565875546
  O        13.6051354800        8.1557698050       18.0940138972
  O        12.6503796051        7.3712459385       15.8029444287
  O        11.1504524834        8.4376533445       17.6046064660
  O        12.2185334289        6.0986303535       18.0113140087
  H        14.5142965159        8.1719834238       17.6568186324
  H        11.9237365412        5.3444505169       17.4497976112
 Cs         9.9176474289       15.0712507646        5.1786981941
  P        12.3088970866       12.5464719851        2.1903084011
  O        13.6314640679       13.0504412300        2.9713580445
  O        12.5535404812       12.4302034495        0.7152586847
  O        11.1572923847       13.4551834379        2.6430583874
  O        12.0311690420       11.0664771339        2.8354715771
  H        14.5107174397       13.0827271323        2.4908560814
  H        12.2259539059       10.2986355421        2.2165509759
 Cs         9.8368295805       15.1748813432        9.8470435770
  P        12.3782896648       12.3691702769        7.0671993459
  O        13.6082863105       12.9067240591        7.9900387270
  O        12.7244051932       12.5259833955        5.6157116575
  O        11.0919189922       13.0157596920        7.5665309242
  O        12.4440895003       10.7911766401        7.4971505426
  H        14.4642263603       13.1222115797        7.5237709929
  H        11.7368957843       10.1043306674        7.3669317394
 Cs         9.8614380928       15.3795408674       14.9808449061
  P        12.2549668464       12.6964464434       12.0920808928
  O        13.6201866224       12.5577092899       12.9552223666
  O        12.5268855269       12.9062229246       10.6389844999
  O        11.2469749794       13.6727742010       12.7147234137
  O        11.6570349146       11.1723139819       12.3582622354
  H        14.4789760094       12.9318773123       12.5477343696
  H        11.8182540159       10.9805714307       13.3051091826
 Cs         9.7162943096       15.0315455856       20.0807910137
  P        12.0961448135       12.3895558474       16.9120039113
  O        13.4000819247       13.1420576970       17.4679603320
  O        12.2574939721       11.8316893038       15.5211403727
  O        11.0109467719       13.4435382511       17.1774632579
  O        11.8537089870       11.1517131412       17.9505968901
  H        14.3489355885       12.8052398063       17.3433009017
  H        11.7354206080       10.2485491913       17.5571403238
 Cs         9.9271107933       20.3595566339        5.0666932688
  P        12.3217990748       17.4468628340        2.2973159211
  O        13.6075468876       18.0603507088        3.0482153404
  O        12.6244214187       17.0868162167        0.8766466446
  O        11.1486627132       18.4260452050        2.5377440935
  O        12.0256475133       16.1041466815        3.1875810906
  H        14.5223418722       18.0211970918        2.6166662585
  H        11.8607622394       15.2546357403        2.7037295297
 Cs         9.6818544730       19.9281853216        9.8954179474
  P        12.3463226012       17.5499658766        7.2302416874
  O        13.5196944427       18.2979588617        8.0442627862
  O        12.6444358441       17.4755448303        5.7659972253
  O        11.0467720427       18.2109134869        7.6634073696
  O        12.4251006315       16.0286696946        7.9029674580
  H        14.4720205576       18.2399675008        7.6885949324
  H        12.2191610773       15.2984045294        7.2909810151
 Cs         9.7170425066       20.3643651359       14.9267709835
  P        12.3053812779       17.4466719530       12.2217401394
  O        13.6213157912       18.0920288429       12.9115065519
  O        12.4514253564       17.2009572921       10.7497664547
  O        11.1376871618       18.3632658834       12.6445074488
  O        12.2310006815       16.0643823231       13.0549326541
  H        14.5005938602       18.1179912906       12.4423288810
  H        11.8399676222       15.2201810677       12.6676903014
 Cs         9.6390710300       19.9174018139       19.8514318235
  P        12.1691775233       17.3663962292       17.2161312776
  O        13.4248675129       18.0619797758       17.9605360197
  O        12.5100029168       16.9895530767       15.8067297515
  O        10.9766343346       18.2999176684       17.4791860380
  O        11.9170373408       16.0030515227       18.1003266160
  H        14.3319384136       18.0118039827       17.5235677047
  H        11.7974486571       15.1729838284       17.5706449821
 Cs        14.6267036424        5.1036654034        5.0053248329
  P        17.3558750289        2.6811860264        2.2408549377
  O        18.5842782466        3.2004859786        3.1417739493
  O        17.6970646517        2.7005000258        0.7789573658
  O        16.1004266798        3.4765521911        2.6406822165
  O        17.2799697388        1.1572887152        2.8426786671
  H        19.5096350541        3.1779223681        2.7153586305
  H        16.7919394526        0.4159222415        2.4026348380
 Cs        14.4552899345        5.4054537436       10.0298757711
  P        17.0419270285        2.6176890639        7.2065620926
  O        18.3635183223        3.3059007398        7.7981253944
  O        17.1787720319        2.1397629271        5.7922666999
  O        15.9335178928        3.6619436612        7.4763759852
  O        16.7810889384        1.3457135050        8.1889197182
  H        19.3055602614        3.1217095048        7.4758338450
  H        16.6170871863        0.4673849460        7.7354162353
 Cs        14.6794557155        5.3552907842       14.8699711098
  P        17.2466362338        2.9170475164       12.1256748095
  O        18.4931382394        3.6268610948       12.8931714798
  O        17.5023243065        2.8004801075       10.6514126761
  O        16.0195734163        3.7425798662       12.5249128086
  O        17.2798313562        1.4621646178       12.8534344498
  H        19.4166537650        3.3496908066       12.6116352107
  H        16.8613065244        0.6732500549       12.4171508239
 Cs        14.5579963460        5.0264777659       19.8857513242
  P        17.0286984321        2.7104206184       17.0436555742
  O        18.2927958706        3.5263129635       17.6125297824
  O        17.2763792297        2.1223879674       15.6896726040
  O        15.8751060265        3.7040445534       17.2147202520
  O        16.7841920644        1.4655238244       18.0949448331
  H        19.2069537992        3.0837403927       17.6152189584
  H        16.7856233219        0.5996691157       17.6265634011
 Cs        14.6526259174       10.1622647399        5.0027533848
  P        17.2964619432        7.6108603565        2.2437474779
  O        18.4865361229        8.0594031919        3.2574491961
  O        17.6798765531        7.9682828316        0.8396008007
  O        15.9911223791        8.1512390637        2.8040639789
  O        17.4019089591        5.9858546357        2.4428692978
  H        19.4169027025        8.1044873389        2.8915081042
  H        16.6617930725        5.3327035135        2.4664105963
 Cs        14.5462358568       10.3515138401        9.8856454547
  P        17.0550267118        7.7141579283        7.2126931258
  O        18.3635242183        8.0633929094        8.1132598026
  O        17.2797667116        8.1872043069        5.8040594417
  O        15.8115849533        8.2439520440        7.9017349634
  O        17.1121869337        6.0886218559        7.2709749553
  H        19.2598184549        8.0651698681        7.6657888352
  H        16.4542643911        5.3819040913        7.4975797882
 Cs        14.7930576897       10.1317503871       14.8606934103
  P        17.1677377809        7.7813290631       12.2159173917
  O        18.2927493139        8.5378581088       13.1047827865
  O        17.6739986484        7.4590598114       10.8414766816
  O        15.9296443894        8.6774890792       12.3314208119
  O        16.9758905216        6.3996694967       13.0656651656
  H        19.2023782854        8.0968180918       13.0713761039
  H        16.7657755630        5.5806885814       12.5571712301
 Cs        14.8367856240       10.3470298169       19.8404614457
  P        17.1467685516        7.5672337015       17.1877657878
  O        18.4869679626        8.1571697552       17.8622264139
  O        17.3758631811        6.9993787225       15.8223514214
  O        16.1008909466        8.6842586189       17.3708895274
  O        16.7128489757        6.3351756446       18.1853149323
  H        19.3744454356        8.0442620787       17.4169395302
  H        16.6456760308        5.4848518459       17.6802316265
 Cs        14.7196186649       15.2563001176        4.8920579907
  P        17.2675677718       12.5355091556        2.0841913970
  O        18.5486340343       13.3075063938        2.7067917127
  O        17.5664541032       11.9367628709        0.7415715759
  O        16.1311951960       13.5519725285        2.2147162073
  O        16.9098810737       11.2712697766        3.0963603683
  H        19.4159584235       12.8190273566        2.8872138071
  H        17.0200439227       10.4227327392        2.6217195164
 Cs        14.6639776367       15.2376651260        9.9412566403
  P        17.2466749524       12.9278961068        6.9635546494
  O        18.5600266133       13.5454975350        7.6511828318
  O        17.4047129262       12.7125863630        5.4910392351