512
energy=-160548.87389244 cutoff=-1.00000000 nneightol=1.20000000 pbc="T T T" Lattice="19.8196 0.0 0.0 0.0 19.8196 0.0 0.0 0.0 19.8196" Properties=species:S:1:pos:R:3:forces:R:3:Z:I:1
Cs -0.425796 5.429310 5.121477 0.023406 -0.026054 0.016735 55 
P 2.306050 2.354086 2.171399 0.025652 -0.047920 0.080686 15 
O 3.615805 3.027677 2.841913 -0.105973 -0.045648 0.006514 8 
O 2.589848 1.742259 0.833770 0.024109 0.034803 -0.077420 8 
O 1.233231 3.444925 2.318820 -0.068136 0.034964 -0.068792 8 
O 1.911134 1.142260 3.191485 -0.129594 0.098107 0.069282 8 
H 4.535012 2.938606 2.435717 0.107406 -0.021432 -0.059211 1 
H 1.874510 0.253333 2.751136 0.021823 -0.054065 -0.079474 1 
Cs -0.473523 5.226012 10.007355 0.030505 0.021334 -0.005456 55 
P 2.322484 2.612733 7.113821 0.054576 -0.079153 0.116396 15 
O 3.518228 3.433480 7.819774 -0.116037 0.073466 -0.002527 8 
O 2.639512 2.315377 5.682126 -0.038963 -0.100060 -0.121213 8 
O 1.066275 3.447927 7.390323 0.030676 0.026025 0.180674 8 
O 2.312278 1.232175 8.000797 -0.153261 0.087832 -0.012338 8 
H 4.453022 3.077567 7.671919 0.103067 -0.068292 -0.040982 1 
H 2.006989 0.405382 7.549414 -0.010453 -0.037689 -0.065270 1 
Cs -0.032480 5.258418 15.077913 -0.012692 -0.012298 -0.001169 55 
P 2.479035 2.531220 12.095393 0.030173 -0.108806 0.087584 15 
O 3.744733 2.913426 13.007806 -0.019581 0.156056 0.035513 8 
O 2.841176 2.343836 10.654882 0.084992 0.054666 -0.054052 8 
O 1.330171 3.474506 12.448886 -0.121989 0.032879 0.133014 8 
O 2.115085 1.041858 12.747107 -0.408805 0.095384 0.078619 8 
H 4.647295 3.075089 12.546717 0.124927 0.001439 -0.080049 1 
H 2.339655 0.317603 12.131079 0.030061 -0.005621 -0.048923 1 
Cs -0.391695 5.273540 19.925490 0.050835 0.012779 0.011250 55 
P 2.237720 2.485405 17.224448 0.094936 -0.055678 0.070866 15 
O 3.424986 3.002341 18.204760 -0.053253 0.089083 0.089115 8 
O 2.511887 3.002412 15.836067 -0.180646 -0.077074 0.000604 8 
O 0.918158 2.801846 17.899141 -0.185321 0.019349 0.095903 8 
O 2.442502 0.865817 17.177447 0.316905 0.145964 -0.199506 8 
H 4.334136 3.077812 17.785755 0.070623 -0.006332 -0.077684 1 
H 1.853960 0.191562 17.598580 -0.044926 -0.047211 0.038949 1 
Cs -0.256369 10.286202 5.144779 0.021256 0.009841 0.018991 55 
P 2.339960 7.451478 2.537784 0.058302 -0.049727 0.040793 15 
O 3.726665 7.759684 3.327698 -0.103728 -0.086178 -0.022410 8 
O 2.542428 7.283982 1.059990 0.078345 0.053676 -0.050404 8 
O 1.331600 8.512368 3.007871 -0.095258 0.044101 -0.127776 8 
O 1.907964 6.028064 3.222905 -0.148688 0.136298 0.035266 8 
H 4.559318 7.972021 2.799792 0.086764 0.012431 -0.085267 1 
H 1.832784 5.219101 2.648897 0.012746 -0.034571 -0.061946 1 
Cs -0.321332 10.122171 10.036332 0.008365 0.018368 0.008560 55 
P 2.252837 7.346641 7.384438 0.041774 -0.053209 0.096358 15 
O 3.518960 7.954714 8.185939 -0.089617 0.097675 0.002333 8 
O 2.612699 6.803872 6.035629 0.037277 0.157845 -0.065023 8 
O 1.146632 8.409095 7.490610 -0.014180 0.028231 0.046264 8 
O 1.850850 6.087087 8.352094 -0.158513 0.085514 0.066883 8 
H 4.455042 7.828185 7.831550 0.090953 -0.031669 -0.062842 1 
H 1.768965 5.229783 7.859960 0.022179 -0.029750 -0.080488 1 
Cs -0.105717 10.564520 14.891194 0.017252 -0.033116 0.017344 55 
P 2.190087 7.699089 12.430612 0.108268 -0.075375 0.014512 15 
O 3.491402 8.051034 13.329832 -0.141280 -0.251084 -0.006200 8 
O 2.157635 8.678775 11.267126 0.004191 0.039918 0.012875 8 
O 0.961364 7.601390 13.311037 -0.009869 0.007617 -0.045897 8 
O 2.537251 6.205858 11.829818 -0.065076 0.109907 -0.080346 8 
H 4.347345 8.156637 12.807914 0.069492 -0.007615 -0.083468 1 
H 2.065948 5.447663 12.253026 -0.021759 0.006109 0.041939 1 
Cs -0.009033 10.086894 19.826692 0.008028 -0.014238 0.018033 55 
P 2.373279 7.411192 17.190020 0.045356 -0.058998 0.116988 15 
O 3.621255 7.958838 18.048511 -0.046268 0.027659 0.018873 8 
O 2.745103 6.962011 15.819905 0.244094 -0.262805 -0.057199 8 
O 1.238091 8.436254 17.305801 -0.036497 0.097574 0.196650 8 
O 1.907057 6.106599 18.093504 -0.212941 0.129067 -0.119195 8 
H 4.540335 8.026026 17.633998 0.096606 -0.003420 -0.066470 1 
H 2.222474 5.273790 17.689656 0.025918 -0.017036 -0.063895 1 
Cs -0.136831 15.236352 4.934978 0.013674 0.030962 -0.005617 55 
P 2.387929 12.426851 2.671973 0.097645 -0.068163 0.015856 15 
O 3.696193 12.422181 3.638348 -0.126538 0.005646 0.164797 8 
O 2.605438 13.441645 1.568885 -0.046469 0.072870 0.088223 8 
O 1.122407 12.509959 3.503771 -0.104814 -0.000104 -0.048054 8 
O 2.439693 10.921315 2.025752 0.027152 0.039559 -0.342725 8 
H 4.534774 12.767978 3.207571 0.051780 0.034833 -0.074123 1 
H 2.038475 10.173928 2.556279 -0.021122 -0.038329 0.056984 1 
Cs -0.120084 15.305576 9.889613 0.046849 0.003907 0.013744 55 
P 2.235508 12.470924 7.547622 0.057077 -0.058040 0.009833 15 
O 3.587832 12.810195 8.385348 -0.167240 0.039053 0.012488 8 
O 2.243205 13.348844 6.320271 0.006442 0.021383 -0.034151 8 
O 0.969315 12.513849 8.390812 -0.038276 0.000825 0.129985 8 
O 2.541418 10.877248 7.272262 0.264535 0.131880 -0.602311 8 
H 4.408843 12.958665 7.830938 0.052635 0.009460 -0.070322 1 
H 1.877539 10.169611 7.478137 -0.049405 -0.032499 0.020463 1 
Cs -0.178953 15.224216 14.916731 0.040997 -0.014695 0.014571 55 
P 2.364281 12.422988 12.293023 0.045492 -0.055165 0.064762 15 
O 3.643166 12.720428 13.240518 -0.095732 0.110608 0.005172 8 
O 2.736830 12.458087 10.849243 0.103201 -0.008361 -0.084993 8 
O 1.213268 13.337849 12.752906 -0.105767 0.030673 0.061494 8 
O 2.015720 10.903667 12.751506 -0.408544 0.066575 0.248240 8 
H 4.520409 12.875172 12.761604 0.109925 0.024502 -0.086667 1 
H 2.131949 10.168134 12.070271 0.031817 -0.097604 -0.075130 1 
Cs 0.022439 15.085378 20.114111 -0.005402 0.031621 -0.004472 55 
P 2.271415 12.315660 17.268918 0.083965 -0.024690 0.053664 15 
O 3.528294 12.990433 18.072862 -0.036864 -0.048488 0.056716 8 
O 2.412044 12.547236 15.794414 -0.100207 0.128355 -0.098884 8 
O 1.022739 12.797952 17.989346 -0.153685 0.023505 -0.009323 8 
O 2.542451 10.746383 17.606852 0.361309 0.094248 0.311135 8 
H 4.424785 12.959127 17.628007 0.053472 -0.018003 -0.059934 1 
H 1.922816 9.989735 17.372200 -0.063862 -0.091669 -0.031484 1 
Cs -0.349835 20.121166 5.038335 0.034837 -0.003195 0.015668 55 
P 2.470413 17.462909 2.157856 0.075119 -0.087416 0.111530 15 
O 3.623211 18.262636 2.948250 -0.060033 0.023189 -0.061004 8 
O 2.836384 17.178004 0.733991 0.205215 -0.016302 -0.087035 8 
O 1.222088 18.306840 2.427319 -0.120240 -0.018768 0.076947 8 
O 2.319347 16.015086 2.944729 -0.045042 0.119396 -0.013609 8 
H 4.561143 17.891530 3.024238 0.102400 -0.056021 -0.007669 1 
H 2.469365 15.232562 2.351115 0.017900 -0.020210 -0.059735 1 
Cs -0.234084 20.327895 9.984563 0.044419 0.005191 0.011762 55 
P 2.390944 17.448195 7.132474 0.058871 -0.086018 0.091261 15 
O 3.643821 18.007388 7.958303 0.023007 0.130426 0.022192 8 
O 2.708967 17.183483 5.692638 -0.053348 0.079124 -0.077306 8 
O 1.230175 18.390575 7.469061 -0.082917 -0.074398 0.041206 8 
O 2.117218 15.989767 7.879110 -0.192852 0.082503 -0.053253 8 
H 4.570820 17.956982 7.548244 0.108678 -0.028437 -0.072510 1 
H 2.201491 15.223896 7.257458 0.015457 -0.011124 -0.051817 1 
Cs -0.141953 20.234247 14.944469 0.025941 0.000620 -0.000460 55 
P 2.470834 17.301900 12.245703 0.091987 -0.017117 0.049335 15 
O 3.681686 17.764644 13.240744 -0.181217 -0.005448 0.176822 8 
O 2.812386 17.788223 10.865169 -0.123695 0.027991 -0.063818 8 
O 1.135054 17.663488 12.853732 -0.151407 0.030979 0.187093 8 
O 2.640181 15.677836 12.323138 0.299458 -0.017886 -0.102025 8 
H 4.536649 17.993329 12.773325 0.071345 0.014945 -0.077819 1 
H 1.917742 15.031267 12.545919 -0.055907 -0.056503 0.018408 1 
Cs -0.221159 20.197086 19.971685 -0.006407 -0.001312 0.006891 55 
P 2.238210 17.275941 17.158859 0.065173 -0.095905 0.108726 15 
O 3.599519 18.016411 17.575528 -0.223850 0.097351 -0.048961 8 
O 2.255039 16.789557 15.738790 0.033411 0.020375 -0.020318 8 
O 1.141967 18.249873 17.599359 -0.036110 0.095889 0.002397 8 
O 2.125419 15.930969 18.113347 0.075690 0.167992 0.081196 8 
H 4.499548 17.557404 17.660093 0.112042 -0.071373 0.000689 1 
H 2.258892 15.119378 17.587774 0.009893 -0.020785 -0.078292 1 
Cs 4.577065 4.952914 4.893232 0.060714 -0.024139 0.036030 55 
P 7.381181 2.643198 2.101725 0.061117 -0.114314 0.115887 15 
O 8.483536 3.529896 2.881092 -0.031631 -0.015872 0.072266 8 
O 7.862744 2.308707 0.721922 -0.212808 0.016690 -0.144805 8 
O 6.092446 3.431043 2.311090 -0.067740 -0.087703 -0.076113 8 
O 7.274697 1.229997 2.949940 -0.004660 0.061364 0.069320 8 
H 9.450948 3.247067 2.744461 0.109458 -0.060121 -0.044166 1 
H 7.354280 0.442689 2.353510 0.013294 -0.022742 -0.053621 1 
Cs 4.765328 5.213719 9.887641 0.028086 -0.003802 -0.011223 55 
P 7.391732 2.405504 7.203300 0.075707 -0.041604 0.068464 15 
O 8.565469 2.938402 8.187980 -0.126464 -0.016344 0.044018 8 
O 7.768676 2.622740 5.762907 0.011638 0.032014 -0.130701 8 
O 6.070567 3.003509 7.669162 -0.192552 -0.013013 0.022245 8 
O 7.491057 0.827045 7.598269 0.167551 0.070322 0.120599 8 
H 9.466941 3.074983 7.768267 0.086419 0.004441 -0.079982 1 
H 6.868489 0.100966 7.313394 -0.060847 -0.079641 -0.030686 1 
Cs 4.727117 4.986276 14.950275 0.009615 0.038938 -0.029617 55 
P 7.187695 2.477798 12.154125 0.022819 -0.077178 0.121128 15 
O 8.480297 3.307499 12.655768 -0.083604 0.019163 0.033712 8 
O 7.409234 1.759693 10.854389 0.034045 0.220994 -0.021619 8 
O 6.091994 3.556266 12.237672 -0.048253 0.004708 -0.048748 8 
O 6.909954 1.345220 13.293883 0.050462 0.137812 -0.047799 8 
H 9.430714 2.979420 12.552742 0.105002 -0.056148 -0.022966 1 
H 6.748364 0.444041 12.880186 -0.003301 -0.087424 -0.088862 1 
Cs 4.792532 5.341395 19.948841 -0.012231 -0.014758 0.025024 55 
P 7.178700 2.810364 16.979806 0.073229 -0.125878 0.084188 15 
O 8.475484 3.237404 17.828453 -0.076298 0.015987 0.092403 8 
O 7.406286 3.002264 15.510202 0.187296 -0.211219 -0.064383 8 
O 5.989125 3.568544 17.571973 -0.084307 0.007830 0.137640 8 
O 6.975952 1.228554 17.401987 -0.258072 0.096164 0.058016 8 
H 9.391561 3.178478 17.400105 0.111065 -0.020463 -0.072719 1 
H 7.225403 0.495393 16.785362 0.031970 -0.015521 -0.043049 1 
Cs 4.936865 9.896398 5.256459 -0.023705 -0.028975 0.011575 55 
P 7.250138 7.558186 2.222263 0.077011 -0.109138 0.133246 15 
O 8.565746 8.394104 2.641872 -0.141459 0.094074 0.002760 8 
O 7.361492 6.975107 0.846978 0.006247 -0.117269 -0.038034 8 
O 6.099671 8.534765 2.500637 0.018576 0.028827 -0.060971 8 
O 7.166395 6.309997 3.295948 -0.087070 0.139261 -0.032360 8 
H 9.457595 7.932222 2.787139 0.096320 -0.070023 0.007304 1 
H 7.192876 5.451456 2.819162 0.009448 0.001043 -0.076052 1 
Cs 4.595661 10.204133 9.934300 0.027961 0.006722 0.018956 55 
P 7.343371 7.452268 7.215542 0.065264 -0.121826 0.061009 15 
O 8.568923 7.801050 8.196016 -0.124943 0.110105 0.111161 8 
O 7.692773 7.704750 5.779041 0.054449 0.174521 -0.152708 8 
O 6.086460 8.122880 7.758744 -0.189452 0.005168 -0.024146 8 
O 7.292748 5.822231 7.510756 0.207570 0.164803 0.333932 8 
H 9.478592 7.958524 7.756597 0.112727 -0.000908 -0.087672 1 
H 6.635766 5.268926 7.054085 -0.017977 -0.002249 -0.031934 1 
Cs 4.835267 10.332726 14.970781 0.024242 -0.029174 0.006944 55 
P 7.022824 7.545535 12.108156 0.051893 -0.082589 0.129873 15 
O 8.362707 8.261971 12.651459 -0.143467 0.094893 -0.062855 8 
O 7.200254 6.976107 10.733519 -0.040001 -0.043034 -0.127026 8 
O 5.933361 8.599446 12.331146 -0.044312 0.052243 0.129594 8 
O 6.775388 6.282903 13.136486 0.039062 0.087747 -0.041773 8 
H 9.263104 7.799562 12.638334 0.101268 -0.069292 -0.009026 1 
H 6.707838 5.421508 12.649717 0.011491 -0.017614 -0.064367 1 
Cs 4.732277 10.196923 19.926383 0.011038 -0.000203 0.036042 55 
P 7.363189 7.647389 17.196685 0.052861 -0.075346 0.099600 15 
O 8.576886 8.249955 18.068768 -0.078818 0.048478 -0.006987 8 
O 7.689535 7.569047 15.733444 0.078630 -0.076526 -0.054321 8 
O 6.133577 8.484539 17.577834 -0.049407 0.063745 -0.098756 8 
O 7.272810 6.161751 17.868755 -0.021621 0.034830 0.023109 8 
H 9.524638 8.132893 17.739383 0.093695 -0.032670 -0.063315 1 
H 6.789373 5.433438 17.414642 -0.014354 -0.031469 -0.050215 1 
Cs 4.764165 15.116322 5.143623 -0.001229 0.014867 0.001865 55 
P 7.264800 12.587516 2.494086 0.069013 -0.083371 0.079624 15 
O 8.575126 13.102148 3.302235 -0.081169 -0.022059 0.083405 8 
O 7.568831 12.427275 1.031930 -0.082040 0.002546 -0.081843 8 
O 6.124430 13.529423 2.901075 -0.036471 -0.021096 0.017352 8 
O 6.969292 11.143291 3.193310 -0.060871 0.067560 0.012731 8 
H 9.471347 13.038441 2.856870 0.074644 -0.015259 -0.068735 1 
H 6.835705 10.348857 2.623610 0.001866 -0.036371 -0.065453 1 
Cs 4.681455 15.077954 10.143423 0.031364 0.035721 -0.020500 55 
P 7.248004 12.433328 7.245510 0.074387 -0.086313 0.129278 15 
O 8.537354 13.241382 7.772052 -0.172717 0.063892 0.031723 8 
O 7.460318 11.840786 5.887703 -0.007845 -0.048609 -0.081774 8 
O 6.084070 13.396869 7.474362 -0.071944 0.096333 0.077356 8 
O 7.070577 11.154738 8.288924 0.059758 0.085619 0.148344 8 
H 9.469123 12.899152 7.585200 0.099455 -0.060927 -0.036293 1 
H 7.043345 10.311397 7.791198 0.017943 -0.002072 -0.066913 1 
Cs 4.664935 15.081177 14.888281 0.008103 -0.051376 0.028358 55 
P 7.341949 12.725902 12.086933 0.078104 -0.094909 0.107931 15 
O 8.475932 13.455068 13.004903 -0.054173 0.026024 -0.010961 8 
O 7.695805 12.819160 10.637068 0.168776 -0.165619 -0.136712 8 
O 6.022794 13.344965 12.525832 -0.042306 -0.018365 0.092575 8 
O 7.486457 11.186925 12.653965 0.060654 0.112948 0.100303 8 
H 9.421597 13.305610 12.728279 0.047097 -0.044301 -0.055472 1 
H 6.904113 10.483119 12.286498 -0.019905 0.001328 -0.037080 1 
Cs 5.020992 14.985565 20.005292 0.009145 0.007076 -0.005710 55 
P 7.389463 12.410423 17.206612 0.047239 -0.042443 0.078384 15 
O 8.632673 13.048142 18.001634 -0.154828 0.226576 0.088167 8 
O 7.750112 12.027770 15.800619 -0.172402 -0.071454 -0.070432 8 
O 6.192246 13.360179 17.406100 -0.028657 -0.008504 0.074198 8 
O 7.160292 11.059896 18.116205 -0.240760 0.190506 0.092238 8 
H 9.542013 13.070435 17.530567 0.110878 -0.020444 -0.083828 1 
H 6.877453 10.235812 17.646969 -0.007605 -0.068936 -0.073536 1 
Cs 4.815372 20.241141 4.937306 -0.000235 0.007984 0.033300 55 
P 7.342796 17.603274 2.753288 0.105251 -0.076356 0.002823 15 
O 8.687585 17.867680 3.631777 -0.048729 0.101566 0.032995 8 
O 7.464307 18.401300 1.470169 -0.050431 0.042679 0.108259 8 
O 6.097687 17.808524 3.586148 -0.075206 -0.109661 -0.030973 8 
O 7.491221 16.007132 2.413256 0.185605 0.067965 -0.580259 8 
H 9.515443 17.982058 3.077415 0.046326 0.000722 -0.082063 1 
H 6.944347 15.338841 2.889952 -0.037397 -0.015785 0.037464 1 
Cs 4.928907 20.040398 9.843833 0.017193 0.002960 -0.015090 55 
P 7.215534 17.232099 7.220155 0.037872 -0.024609 0.102295 15 
O 8.479821 17.860184 7.996095 -0.055966 -0.045310 0.020558 8 
O 7.562081 16.680063 5.880208 0.140961 -0.371771 -0.128811 8 
O 6.119027 18.312741 7.294169 0.024724 0.064290 0.069231 8 
O 6.770123 16.011905 8.205919 -0.137644 0.147058 0.112341 8 
H 9.402766 17.808574 7.607898 0.089053 -0.010038 -0.058236 1 
H 6.721013 15.116532 7.773136 0.020863 -0.064177 -0.077452 1 
Cs 4.526022 20.121335 15.038685 0.030443 -0.003985 0.002168 55 
P 7.329868 17.693816 12.277404 0.061605 -0.121260 0.094695 15 
O 8.585558 18.294964 13.096783 -0.003424 0.038961 0.044096 8 
O 7.691185 17.375085 10.861603 0.100003 -0.172838 -0.062165 8 
O 6.170491 18.653823 12.552078 -0.107866 0.017512 0.100272 8 
O 6.970118 16.316955 13.110315 -0.142935 0.149546 0.026799 8 
H 9.522463 18.122197 12.752506 0.086597 -0.033053 -0.061528 1 
H 7.227832 15.496925 12.644474 0.020982 -0.006491 -0.073556 1 
Cs 4.923107 19.882047 19.757456 -0.008264 0.037578 0.006863 55 
P 7.271797 17.388876 17.267365 0.101709 -0.069267 -0.011662 15 
O 8.560499 17.406281 18.262844 -0.142176 -0.091887 0.035848 8 
O 7.458778 18.450339 16.207857 -0.105383 -0.002088 0.045476 8 
O 6.007052 17.373343 18.104064 -0.042883 0.026634 0.320824 8 
O 7.355535 15.903873 16.583560 0.152830 0.121746 -0.424057 8 
H 9.428719 17.691369 17.821631 0.066302 0.033792 -0.077832 1 
H 6.969458 15.146840 17.098419 -0.023776 -0.027493 0.051959 1 
Cs 9.710536 5.276418 5.137458 0.023272 -0.003372 0.008580 55 
P 12.263507 2.545640 2.173567 0.058006 -0.073206 0.076392 15 
O 13.526656 3.037772 3.074575 -0.116028 0.074411 0.041902 8 
O 12.528111 2.812027 0.720797 -0.014454 0.118853 -0.135700 8 
O 11.039003 3.190596 2.810803 -0.157292 -0.014005 0.062099 8 
O 12.347384 0.952054 2.447596 0.314584 0.117855 0.307884 8 
H 14.449540 3.032624 2.680460 0.090483 -0.007225 -0.068199 1 
H 11.694456 0.183656 2.422175 -0.056378 -0.099053 -0.005245 1 
Cs 9.422735 5.111659 10.089808 0.055924 -0.018001 0.022742 55 
P 12.270786 2.709050 7.256387 0.055718 -0.101059 0.093281 15 
O 13.519502 3.339759 8.017736 -0.176353 0.221909 0.048490 8 
O 12.549217 2.408648 5.812184 0.067188 -0.219366 -0.036054 8 
O 11.070878 3.613151 7.564916 -0.029941 0.042487 0.057775 8 
O 12.022937 1.309925 8.091221 -0.245414 0.073919 0.072419 8 
H 14.482998 3.286850 7.660779 0.126719 -0.026417 -0.070884 1 
H 12.130419 0.488606 7.573471 0.017729 -0.020737 -0.076665 1 
Cs 9.552336 5.271656 14.875465 0.032610 0.022207 0.012550 55 
P 12.307425 2.526559 12.178925 0.064526 -0.050043 0.070166 15 
O 13.536238 2.970448 13.139221 -0.074707 -0.031226 0.073529 8 
O 12.632587 2.802326 10.741633 -0.000185 0.092045 -0.083770 8 
O 11.037421 3.171679 12.743342 -0.170049 0.028231 0.087820 8 
O 12.347901 0.932693 12.454636 0.262224 0.068663 0.165803 8 
H 14.409906 3.173589 12.691176 0.074117 0.015208 -0.078531 1 
H 11.663725 0.206474 12.453689 -0.051547 -0.092993 0.004259 1 
Cs 9.679986 5.080942 19.853510 0.028659 0.008983 -0.010075 55 
P 12.109442 2.466616 17.021217 0.035567 -0.056263 0.113877 15 
O 13.355095 3.240697 17.673292 0.001668 0.058281 0.015628 8 
O 12.399480 1.835250 15.696171 0.094543 -0.015727 -0.122706 8 
O 10.955950 3.474712 17.108357 -0.020417 0.017025 0.099598 8 
O 11.827897 1.244429 18.092474 -0.082218 0.086801 -0.034913 8 
H 14.298884 3.179753 17.316920 0.104151 -0.026280 -0.047702 1 
H 11.746593 0.370839 17.634903 0.020132 -0.019033 -0.068369 1 
Cs 9.717443 10.140431 4.924326 0.026981 0.032579 0.019343 55 
P 12.220822 7.691529 2.478186 0.082583 -0.101585 -0.034141 15 
O 13.518778 7.652212 3.436881 -0.181885 -0.086930 0.058828 8 
O 12.407721 8.764235 1.427738 -0.091922 -0.000532 0.004343 8 
O 10.967269 7.698363 3.328426 -0.056829 -0.014078 0.043187 8 
O 12.254494 6.217199 1.725289 0.096926 0.138717 -0.178786 8 
H 14.420453 7.806875 2.993698 0.092083 0.027028 -0.084074 1 
H 11.977128 5.499548 2.333479 -0.003554 0.011222 0.046415 1 
Cs 9.783991 10.062569 10.106404 0.010103 0.025261 -0.034040 55 
P 12.078447 7.353009 7.377339 0.024613 -0.040973 0.077350 15 
O 13.323140 7.999115 8.142880 -0.160702 0.070658 -0.003782 8 
O 12.416546 6.797631 6.025149 0.081757 0.013931 -0.052364 8 
O 10.961848 8.424211 7.462570 0.068463 0.020614 -0.060554 8 
O 11.660301 6.118669 8.354932 -0.124715 0.151718 0.076528 8 
H 14.279220 7.929080 7.812944 0.128252 -0.020716 -0.060464 1 
H 11.569787 5.229108 7.898894 0.013285 -0.085413 -0.083761 1 
Cs 9.612571 9.913261 14.914036 0.013648 0.019695 0.000283 55 
P 12.107734 7.325638 12.263850 0.115609 -0.064853 0.043524 15 
O 13.371270 7.885326 13.131887 -0.085297 0.106808 -0.016418 8 
O 12.227080 7.798779 10.849135 -0.066333 0.150235 -0.059573 8 
O 10.820963 7.558994 13.038807 -0.157184 -0.014275 0.019327 8 
O 12.448929 5.713418 12.326334 0.161236 0.115762 0.059194 8 
H 14.191274 8.076036 12.598042 0.033176 -0.000507 -0.066273 1 
H 11.740980 5.055093 12.516455 -0.045566 -0.045545 0.011958 1 
Cs 9.713751 10.357006 20.011761 0.019373 0.008147 0.011500 55 
P 12.355771 7.558652 17.256588 0.057670 -0.079894 0.101550 15 
O 13.605135 8.155770 18.094014 -0.182308 0.042131 0.035757 8 
O 12.650380 7.371246 15.802944 0.107833 -0.087110 -0.071444 8 
O 11.150452 8.437653 17.604606 -0.068470 0.043104 0.103697 8 
O 12.218533 6.098630 18.011314 -0.237101 0.135177 0.115547 8 
H 14.514297 8.171983 17.656819 0.094048 -0.025678 -0.075229 1 
H 11.923737 5.344451 17.449798 0.001514 -0.001189 -0.053334 1 
Cs 9.917647 15.071251 5.178698 -0.001244 0.009102 0.010590 55 
P 12.308897 12.546472 2.190308 0.081942 -0.090683 0.081452 15 
O 13.631464 13.050441 2.971358 -0.059525 0.131394 0.095618 8 
O 12.553540 12.430203 0.715259 0.130204 0.024645 -0.178082 8 
O 11.157292 13.455183 2.643058 0.002378 0.024037 0.014873 8 
O 12.031169 11.066477 2.835472 -0.130477 0.131326 0.033989 8 
H 14.510717 13.082727 2.490856 0.082547 -0.015214 -0.074851 1 
H 12.225954 10.298636 2.216551 0.026381 -0.069431 -0.081253 1 
Cs 9.836830 15.174881 9.847044 0.013890 0.017841 0.005298 55 
P 12.378290 12.369170 7.067199 0.068055 -0.058358 0.095489 15 
O 13.608286 12.906724 7.990039 -0.192298 -0.017713 -0.000288 8 
O 12.724405 12.525983 5.615712 -0.066392 0.103431 -0.064036 8 
O 11.091919 13.015760 7.566531 -0.063669 -0.068317 0.027997 8 
O 12.444090 10.791177 7.497151 0.214943 0.101902 0.245415 8 
H 14.464226 13.122212 7.523771 0.073417 0.004151 -0.079046 1 
H 11.736896 10.104331 7.366932 -0.051794 -0.054464 -0.018372 1 
Cs 9.861438 15.379541 14.980845 -0.027575 0.010909 0.013471 55 
P 12.254967 12.696446 12.092081 0.061933 -0.110684 0.162247 15 
O 13.620187 12.557709 12.955222 -0.121720 0.311288 0.066814 8 
O 12.526886 12.906223 10.638984 -0.002637 -0.287768 -0.129929 8 
O 11.246975 13.672774 12.714723 -0.033216 0.107356 0.067400 8 
O 11.657035 11.172314 12.358262 0.077078 0.168061 0.006592 8 
H 14.478976 12.931877 12.547734 0.086122 0.043624 -0.068037 1 
H 11.818254 10.980571 13.305109 0.028287 0.041887 0.024725 1 
Cs 9.716294 15.031546 20.080791 0.019947 -0.009072 -0.000510 55 
P 12.096145 12.389556 16.912004 0.060440 -0.080148 0.089597 15 
O 13.400082 13.142058 17.467960 -0.225216 0.082825 -0.127579 8 
O 12.257494 11.831689 15.521140 -0.045897 -0.140720 -0.010075 8 
O 11.010947 13.443538 17.177463 -0.107258 0.033726 -0.127214 8 
O 11.853709 11.151713 17.950597 0.063735 0.114772 0.037724 8 
H 14.348936 12.805240 17.343301 0.138440 -0.055074 -0.025670 1 
H 11.735421 10.248549 17.557140 0.007307 -0.060520 -0.069937 1 
Cs 9.927111 20.359557 5.066693 -0.000014 -0.009652 0.007480 55 
P 12.321799 17.446863 2.297316 0.039495 -0.057623 0.072552 15 
O 13.607547 18.060351 3.048215 -0.270256 -0.029731 0.068872 8 
O 12.624421 17.086816 0.876647 -0.005399 -0.079594 -0.083848 8 
O 11.148663 18.426045 2.537744 -0.014872 0.055328 0.125582 8 
O 12.025648 16.104147 3.187581 -0.116492 0.108027 0.017782 8 
H 14.522342 18.021197 2.616666 0.106323 -0.020680 -0.074550 1 
H 11.860762 15.254636 2.703730 0.009750 -0.043532 -0.073954 1 
Cs 9.681854 19.928185 9.895418 0.040813 -0.006008 0.039286 55 
P 12.346323 17.549966 7.230242 0.103046 -0.094588 0.084055 15 
O 13.519694 18.297959 8.044263 -0.164222 0.054700 0.047922 8 
O 12.644436 17.475545 5.765997 0.052489 -0.136537 -0.171977 8 
O 11.046772 18.210913 7.663407 -0.102244 0.000193 -0.078992 8 
O 12.425101 16.028670 7.902967 -0.048752 0.157503 0.050750 8 
H 14.472021 18.239968 7.688595 0.103732 -0.027552 -0.064417 1 
H 12.219161 15.298405 7.290981 -0.001840 0.000196 -0.047097 1 
Cs 9.717043 20.364365 14.926771 0.038993 0.016460 0.018232 55 
P 12.305381 17.446672 12.221740 0.064575 -0.022398 0.057734 15 
O 13.621316 18.092029 12.911507 -0.133307 -0.026402 0.026305 8 
O 12.451425 17.200957 10.749766 0.074999 0.007972 -0.044175 8 
O 11.137687 18.363266 12.644507 -0.087830 0.123862 -0.006419 8 
O 12.231001 16.064382 13.054933 0.065527 0.066936 0.090591 8 
H 14.500594 18.117991 12.442329 0.065681 -0.008159 -0.060775 1 
H 11.839968 15.220181 12.667690 -0.044399 -0.118055 -0.065766 1 
Cs 9.639071 19.917402 19.851432 0.011488 0.041759 -0.010936 55 
P 12.169178 17.366396 17.216131 0.040307 -0.049077 0.059604 15 
O 13.424868 18.061980 17.960536 -0.086310 0.006337 0.029313 8 
O 12.510003 16.989553 15.806730 0.026159 -0.008573 -0.045352 8 
O 10.976634 18.299918 17.479186 -0.028776 0.013327 -0.067397 8 
O 11.917037 16.003052 18.100327 -0.069412 0.098838 -0.033197 8 
H 14.331938 18.011804 17.523568 0.086316 -0.016141 -0.064472 1 
H 11.797449 15.172984 17.570645 0.004941 -0.035177 -0.078789 1 
Cs 14.626704 5.103665 5.005325 0.035397 0.008017 -0.011301 55 
P 17.355875 2.681186 2.240855 0.052189 -0.079759 0.088516 15 
O 18.584278 3.200486 3.141774 -0.108705 0.120189 0.172727 8 
O 17.697065 2.700500 0.778957 -0.013105 -0.127818 -0.040612 8 
O 16.100427 3.476552 2.640682 -0.073793 0.038764 0.031843 8 
O 17.279970 1.157289 2.842679 -0.076221 0.130120 -0.006420 8 
H 19.509635 3.177922 2.715359 0.104902 -0.028843 -0.086887 1 
H 16.791939 0.415922 2.402635 -0.031444 -0.053295 -0.051364 1 
Cs 14.455290 5.405454 10.029876 0.084985 0.012590 -0.007357 55 
P 17.041927 2.617689 7.206562 0.045300 -0.084451 0.092906 15 
O 18.363518 3.305901 7.798125 -0.189288 0.004403 0.035945 8 
O 17.178772 2.139763 5.792267 0.081364 0.032051 -0.068863 8 
O 15.933518 3.661944 7.476376 0.035757 0.055892 0.138274 8 
O 16.781089 1.345714 8.188920 -0.011015 0.111092 0.041554 8 
H 19.305560 3.121710 7.475834 0.115999 -0.033856 -0.050817 1 
H 16.617087 0.467385 7.735416 -0.002050 -0.071994 -0.082913 1 
Cs 14.679456 5.355291 14.869971 -0.014178 -0.033787 0.031089 55 
P 17.246636 2.917048 12.125675 0.078948 -0.070902 0.096505 15 
O 18.493138 3.626861 12.893171 -0.036660 0.014987 -0.006115 8 
O 17.502324 2.800480 10.651413 0.082879 -0.206879 -0.055498 8 
O 16.019573 3.742580 12.524913 -0.002864 -0.017821 0.021287 8 
O 17.279831 1.462165 12.853434 -0.089080 0.151322 0.001070 8 
H 19.416654 3.349691 12.611635 0.074841 -0.046618 -0.060363 1 
H 16.861307 0.673250 12.417151 -0.035179 -0.059576 -0.061594 1 
Cs 14.557996 5.026478 19.885751 0.060339 0.021315 0.011592 55 
P 17.028698 2.710421 17.043656 0.059763 -0.105655 0.139826 15 
O 18.292796 3.526313 17.612530 -0.083559 0.065249 -0.011428 8 
O 17.276379 2.122388 15.689673 0.112376 -0.056462 -0.119676 8 
O 15.875106 3.704045 17.214720 -0.130650 0.011271 0.127388 8 
O 16.784192 1.465524 18.094945 -0.039839 0.121710 0.045170 8 
H 19.206954 3.083740 17.615219 0.109511 -0.079487 -0.007138 1 
H 16.785623 0.599669 17.626563 0.017080 -0.017341 -0.072182 1 
Cs 14.652626 10.162265 5.002753 -0.006032 0.024174 0.027517 55 
P 17.296462 7.610860 2.243747 0.048920 -0.098379 0.080793 15 
O 18.486536 8.059403 3.257449 -0.064135 0.098668 0.035094 8 
O 17.679877 7.968283 0.839601 -0.049237 0.073304 -0.065707 8 
O 15.991122 8.151239 2.804064 -0.196085 0.010859 -0.099437 8 
O 17.401909 5.985855 2.442869 0.199457 0.056554 0.141483 8 
H 19.416903 8.104487 2.891508 0.083350 -0.008830 -0.072972 1 
H 16.661793 5.332704 2.466411 -0.040777 -0.031873 -0.000859 1 
Cs 14.546236 10.351514 9.885645 0.034772 -0.008102 0.037443 55 
P 17.055027 7.714158 7.212693 0.060302 -0.105213 0.078046 15 
O 18.363524 8.063393 8.113260 -0.247685 0.086417 0.066779 8 
O 17.279767 8.187204 5.804059 0.085224 -0.016357 -0.060380 8 
O 15.811585 8.243952 7.901735 -0.022148 -0.078606 0.278397 8 
O 17.112187 6.088622 7.270975 0.466030 0.061730 -0.250635 8 
H 19.259818 8.065170 7.665789 0.068651 -0.013319 -0.070770 1 
H 16.454264 5.381904 7.497580 -0.058240 -0.071527 0.021076 1 
Cs 14.793058 10.131750 14.860693 0.019471 -0.002629 0.022148 55 
P 17.167738 7.781329 12.215917 0.061915 -0.084146 0.118939 15 
O 18.292749 8.537858 13.104783 -0.001847 0.029577 -0.140327 8 
O 17.673999 7.459060 10.841477 -0.114905 -0.026433 -0.090678 8 
O 15.929644 8.677489 12.331421 -0.097648 -0.021469 0.094653 8 
O 16.975891 6.399669 13.065665 -0.186895 0.131674 0.072975 8 
H 19.202378 8.096818 13.071376 0.089894 -0.068199 -0.035171 1 
H 16.765776 5.580689 12.557171 0.000269 -0.046235 -0.061241 1 
Cs 14.836786 10.347030 19.840461 0.017847 -0.005334 0.000163 55 
P 17.146769 7.567234 17.187766 0.044354 -0.069051 0.085401 15 
O 18.486968 8.157170 17.862226 -0.062556 -0.072732 0.011234 8 
O 17.375863 6.999379 15.822351 0.052074 0.094928 -0.044617 8 
O 16.100891 8.684259 17.370890 -0.031826 0.009139 0.016826 8 
O 16.712849 6.335176 18.185315 -0.002323 0.113223 -0.013125 8 
H 19.374445 8.044262 17.416940 0.075084 -0.029502 -0.056198 1 
H 16.645676 5.484852 17.680232 0.019648 -0.028931 -0.075519 1 
Cs 14.719619 15.256300 4.892058 0.026859 -0.013288 0.013071 55 
P 17.267568 12.535509 2.084191 0.052397 -0.110127 0.149350 15 
O 18.548634 13.307506 2.706792 -0.220986 -0.124172 -0.032086 8 
O 17.566454 11.936763 0.741572 0.055669 -0.007184 -0.052242 8 
O 16.131195 13.551973 2.214716 0.013610 0.062422 -0.076774 8 
O 16.909881 11.271270 3.096360 0.120343 0.182935 0.006651 8 
H 19.415958 12.819027 2.887214 0.096581 -0.078933 0.003701 1 
H 17.020044 10.422733 2.621720 0.032418 -0.016973 -0.071831 1 
Cs 14.663978 15.237665 9.941257 0.043728 0.036853 0.015102 55 
P 17.246675 12.927896 6.963555 0.064812 -0.146818 0.128658 15 
O 18.560027 13.545498 7.651183 -0.225936 0.177564 -0.013446 8 
O 17.404713 12.712586 5.491039 0.169103 -0.257211 -0.119393 8 
O 16.086725 13.842814 7.371104 -0.036016 0.020956 0.246992 8 
O 17.084498 11.458966 7.725201 -0.036804 0.158194 0.058331 8 
H 19.408128 12.993889 7.825444 0.115473 -0.083823 0.010379 1 
H 16.994030 10.734062 7.079782 0.010635 0.004631 -0.051457 1 
Cs 14.876001 15.196535 14.846374 0.002365 -0.009787 0.033207 55 
P 17.194243 12.746633 11.963709 0.079513 -0.104117 0.130527 15 
O 18.385479 13.683614 12.556039 -0.069209 0.016711 -0.045114 8 
O 17.475718 12.325509 10.554002 -0.111422 -0.018467 -0.065265 8 
O 15.922721 13.542209 12.255391 -0.014306 -0.043668 0.021530 8 
O 17.277069 11.429366 12.948176 -0.085980 0.048470 0.019270 8 
H 19.331834 13.333987 12.492839 0.075014 -0.065724 -0.022181 1 
H 16.989187 10.600839 12.500082 -0.007823 -0.008581 -0.063109 1 
Cs 14.692670 15.107265 19.599303 0.020884 0.010286 0.026426 55 
P 17.240938 12.593031 16.976994 0.105667 -0.075872 0.097207 15 
O 18.294083 13.462017 17.866392 0.004148 0.012237 0.023692 8 
O 17.477197 12.922512 15.529466 -0.160674 -0.053705 -0.051640 8 
O 15.867657 12.817660 17.577533 -0.192664 -0.061108 0.002473 8 
O 17.706794 11.053614 17.277770 0.296132 0.085802 0.048159 8 