     288
 i =        1, time =        0.000, E =     -1761.7892729580
  O        -0.0188663068       -0.0039474428       -0.0042006100
  H         0.0081342612        0.0071587414        0.0065626716
  O        -0.0071780609        0.0002450958        0.0091588811
  H         0.0150947530        0.0008122473        0.0053736496
  O         0.0512875615        0.0310666048        0.0184553762
  H        -0.0344581082       -0.0292227458       -0.0239895073
  O        -0.0102997476       -0.0117005377       -0.0039559241
  H         0.0066107750        0.0039436565        0.0084364478
  K        -0.0004601758       -0.0079938967        0.0057863915
  K        -0.0007162134       -0.0030310494        0.0025447508
  K         0.0008208463        0.0068966743       -0.0005887406
  K        -0.0057825850       -0.0027835851       -0.0007218803
  O         0.0248341661        0.0102633089       -0.0058219300
  H         0.0077345289        0.0039168706       -0.0012109675
  H        -0.0276689162       -0.0076718950        0.0051729040
  O         0.0352118699       -0.0133761436       -0.0174426764
  H        -0.0065210400        0.0032100044       -0.0109204067
  H        -0.0312847346        0.0063104590        0.0281328584
  O        -0.0065884481        0.0185708289        0.0252679108
  H         0.0021012265       -0.0013362764       -0.0327611734
  H        -0.0046911617       -0.0050064520       -0.0015399793
  O         0.0077494303        0.0036793516       -0.0116170885
  H        -0.0108888648       -0.0111257009        0.0097918369
  H         0.0049806674        0.0139918930        0.0018086804
  O        -0.0070208030       -0.0160891533       -0.0032797956
  H         0.0004959802        0.0119545011        0.0112615524
  H         0.0015276902        0.0144710835       -0.0193851795
  O        -0.0305362480       -0.0294575719       -0.0156196312
  H        -0.0040533058        0.0166294828        0.0106672222
  H         0.0373462799        0.0141898357        0.0074701729
  O         0.0188251029       -0.0064440499       -0.0089821877
  H        -0.0174468500        0.0070198780       -0.0064337658
  H         0.0003773021        0.0049511954        0.0111207766
  O         0.0461961612       -0.0114296358        0.0004141331
  H        -0.0254570110        0.0128945649        0.0141867809
  H        -0.0143431087       -0.0119009318       -0.0036080912
  O        -0.0000975901        0.0180648456       -0.0076831421
  H         0.0047797971       -0.0166970843        0.0060982520
  H         0.0025347487       -0.0038271223        0.0025694212
  O         0.0002615743        0.0044250742       -0.0325287509
  H         0.0028362127       -0.0025592812       -0.0008708622
  H        -0.0057989400       -0.0069718223        0.0261180202
  O         0.0078045666        0.0018267847        0.0223923897
  H        -0.0047186592       -0.0049834946       -0.0207538369
  H        -0.0042908411        0.0010579339       -0.0031671157
  O        -0.0059028245        0.0393507048       -0.0179813630
  H        -0.0061750201       -0.0073104034        0.0143273553
  H         0.0097728146       -0.0337265888        0.0005826326
  O         0.0251049390       -0.0330372729        0.0100327698
  H        -0.0146803004        0.0002820098        0.0099158415
  H        -0.0194049866        0.0270434686       -0.0199047406
  O        -0.0310552342        0.0003421083       -0.0038599183
  H         0.0283362075       -0.0037002120        0.0045695457
  H        -0.0025289908        0.0011664846       -0.0063275432
  O         0.0240837900       -0.0163418356       -0.0047220010
  H        -0.0100591028        0.0039397609        0.0006661065
  H        -0.0087137636        0.0133024722        0.0003465344
  O         0.0443342919       -0.0160786184       -0.0047665060
  H        -0.0198730200        0.0074497757        0.0005799053
  H        -0.0075815675        0.0060706796        0.0040282676
  O         0.0143263616        0.0001626721        0.0172669862
  H         0.0073779062       -0.0087571408       -0.0005336449
  H        -0.0187107673       -0.0054599512       -0.0138484828
  O         0.0071164223        0.0173636568       -0.0092955131
  H         0.0031072428        0.0133203069        0.0000636783
  H        -0.0189490354       -0.0260534854        0.0151159203
  O        -0.0093250786       -0.0080509405       -0.0092635911
  H        -0.0025419005        0.0171851644       -0.0015495993
  H        -0.0017408399       -0.0114145804        0.0099562207
  O         0.0073533297        0.0083132942       -0.0202148675
  H        -0.0099170031       -0.0095939835       -0.0006588731
  H        -0.0103867156        0.0012679490        0.0030220474
  O        -0.0211576910        0.0001161746       -0.0128940676
  H         0.0242390855       -0.0021188998       -0.0008446794
  H        -0.0022207379        0.0011903810        0.0016970904
  O         0.0094503970        0.0113896254       -0.0181517417
  H         0.0036929879       -0.0090191364        0.0119677946
  H        -0.0116876491       -0.0054395886        0.0063518706
  O         0.0071567211        0.0140587959        0.0238740170
  H        -0.0012782725       -0.0199156975       -0.0217457806
  H        -0.0014012785        0.0034521630        0.0141729991
  O         0.0011412745        0.0123446610        0.0194396680
  H        -0.0095499162        0.0000829798       -0.0084311327
  H         0.0081385716       -0.0080166931       -0.0148794376
  O        -0.0104195364        0.0045691010       -0.0071072705
  H         0.0053235232       -0.0001459018        0.0023453956
  H         0.0076543198       -0.0039348723        0.0081370351
  O        -0.0031983825        0.0043997210       -0.0158977665
  H        -0.0068178860       -0.0050160315        0.0049510538
  H         0.0121342899       -0.0079593691        0.0116722422
  O         0.0031717716       -0.0076621044        0.0068009905
  H        -0.0147010035        0.0052529163       -0.0168180777
  H         0.0098395065        0.0039247591       -0.0035701464
  O         0.0042495548        0.0218540464        0.0218941994
  H        -0.0094813622       -0.0079226490       -0.0232393105
  H        -0.0001062472       -0.0090275582       -0.0120506087
  O        -0.0108603207        0.0185462836       -0.0177278932
  H         0.0120913606        0.0018727996        0.0044024248
  H        -0.0034323783       -0.0135850910        0.0102043460
  O         0.0248210379        0.0088936504        0.0093150995
  H        -0.0025777346        0.0032914156       -0.0057300007
  H        -0.0253411254       -0.0104181642       -0.0040804153
  O         0.0203552100        0.0005532079        0.0133599017
  H        -0.0221279949       -0.0053870444       -0.0057765820
  H        -0.0033559040        0.0021114147       -0.0039496227
  O         0.0088072267       -0.0044782528        0.0157029633
  H         0.0061323178        0.0071052177       -0.0053512199
  H        -0.0157166152       -0.0100430206       -0.0112567686
  O         0.0225870070       -0.0298400769        0.0237641529
  H        -0.0031101224        0.0152093620        0.0038361934
  H        -0.0144658776        0.0107222831       -0.0173001368
  O         0.0324583563       -0.0362199419       -0.0041153866
  H        -0.0203472285        0.0091038597       -0.0115874788
  H        -0.0241935594        0.0264830007        0.0076401182
  O         0.0135439944       -0.0090572760       -0.0261247330
  H         0.0042278341       -0.0014888535        0.0029537973
  H        -0.0146486941        0.0115696679        0.0234950680
  O         0.0038858661        0.0045985617        0.0231244357
  H        -0.0086594549        0.0101386855       -0.0125291797
  H         0.0004299002       -0.0080834646       -0.0080610584
  O        -0.0109910939        0.0078790382        0.0087628117
  H         0.0058777277       -0.0095630430        0.0006423151
  H         0.0151922367       -0.0025590162       -0.0074120887
  O        -0.0093702997       -0.0000399482       -0.0162005612
  H         0.0022290732        0.0003778407        0.0044166055
  H         0.0091059289       -0.0047875778        0.0042410361
  O        -0.0076695068        0.0150590013        0.0139130397
  H         0.0063920767       -0.0031755246       -0.0131708885
  H         0.0053705359       -0.0159347101        0.0010458425
  O         0.0160355434        0.0110636932       -0.0107082771
  H        -0.0182661351       -0.0085990622        0.0079680653
  H         0.0079279238        0.0005209999       -0.0025009197
  O        -0.0010415780        0.0083523556       -0.0213244653
  H        -0.0032008847       -0.0121369559        0.0048872301
  H         0.0095977624        0.0086236616        0.0233358047
  O        -0.0376131278        0.0163063010        0.0246267606
  H         0.0326233200       -0.0228889092       -0.0057406814
  H         0.0045450593        0.0089540085       -0.0230974712
  O         0.0080998644       -0.0067746129        0.0154246928
  H         0.0004026051        0.0021752140       -0.0048169276
  H        -0.0009448688        0.0148891177       -0.0075504125
  O        -0.0162953409       -0.0306051154        0.0001639159
  H         0.0077330531        0.0049508818        0.0027217634
  H         0.0182076390        0.0232152014       -0.0026025290
  O         0.0125028889       -0.0121815653       -0.0156210419
  H        -0.0009930749       -0.0075434975       -0.0103779427
  H        -0.0104054448        0.0131945248        0.0234655786
  O        -0.0209482394        0.0056411120        0.0118198183
  H         0.0133520244       -0.0034045692       -0.0145389329
  H         0.0007380197       -0.0008236233        0.0025435235
  O        -0.0346058738       -0.0206284178       -0.0028042790
  H         0.0186762745       -0.0034168466       -0.0030155278
  H         0.0153661965        0.0289068402        0.0098455697
  O        -0.0169726370       -0.0032171373       -0.0037324070
  H         0.0131161968        0.0004783826       -0.0102591942
  H         0.0037521980       -0.0017418460        0.0118634187
  O        -0.0102661983        0.0151971774       -0.0205095944
  H         0.0122321525       -0.0121894627        0.0101944582
  H        -0.0148129251       -0.0013664469        0.0027131373
  O         0.0107448742       -0.0115979339        0.0045692206
  H        -0.0042987128        0.0145068851       -0.0086949827
  H        -0.0037210129        0.0088458444       -0.0009252082
  O        -0.0376342380        0.0077553135       -0.0008165508
  H         0.0124679518       -0.0169771041       -0.0038238974
  H         0.0260339975        0.0055731216        0.0020108870
  O        -0.0028345621       -0.0140759422       -0.0002521526
  H         0.0021501052        0.0109265603        0.0009176543
  H         0.0007709383        0.0013706381       -0.0036272898
  O         0.0070534137       -0.0005877187        0.0044397601
  H         0.0098820884       -0.0088946418       -0.0061700054
  H        -0.0128323044        0.0029171478        0.0031352499
  O         0.0187129503       -0.0007610210        0.0071930101
  H        -0.0127374603       -0.0002094938       -0.0085814179
  H        -0.0024540150        0.0008231565       -0.0023057157
  O         0.0039454673       -0.0151681734        0.0159511363
  H        -0.0001021709        0.0024529009       -0.0021134810
  H        -0.0073236862        0.0102382816       -0.0193026129
  O         0.0532477001        0.0021768722        0.0118864477
  H        -0.0343127577       -0.0043401919       -0.0253179437
  H        -0.0170061064        0.0028770354        0.0146121349
  O        -0.0046746956       -0.0303718620       -0.0196795072
  H         0.0205691362        0.0276173670       -0.0145014550
  H        -0.0205294183        0.0128319107        0.0198857887
  O         0.0016437534       -0.0021334341        0.0173279377
  H        -0.0005968179       -0.0079475141       -0.0143810874
  H        -0.0014752369        0.0007161190        0.0036945040
  O        -0.0051967834       -0.0132773747        0.0155654639
  H         0.0125400400       -0.0059994103       -0.0156411393
  H        -0.0049467731        0.0113301149       -0.0023055766
  O         0.0152683000       -0.0097606248        0.0031139058
  H        -0.0116867313       -0.0061209853       -0.0033673245
  H         0.0001219407        0.0139582645        0.0032272366
  O         0.0078593927       -0.0016159748        0.0057739747
  H        -0.0004960900        0.0051291008        0.0121100873
  H        -0.0096992553        0.0017904115       -0.0151235032
  O        -0.0055638316        0.0224744689        0.0058112491
  H        -0.0065956627       -0.0141926172       -0.0035297948
  H         0.0081511675       -0.0076684813       -0.0014109941
  O         0.0046168040       -0.0015435373        0.0000790776
  H         0.0019518903        0.0024981747        0.0009106058
  H        -0.0103387757        0.0023525949        0.0026392792
  O        -0.0081680282       -0.0043281934       -0.0065385262
  H        -0.0034714778       -0.0015415960       -0.0072599127
  H         0.0085635356        0.0062130907        0.0151371000
  O        -0.0004705328       -0.0106897419       -0.0203556148
  H        -0.0063554356        0.0161532675        0.0075333704
  H         0.0093293012        0.0017812611        0.0096040663
  O         0.0092317427        0.0094602593       -0.0057408409
  H        -0.0082018211       -0.0032219320        0.0056584714
  H        -0.0015855442       -0.0008143317        0.0062475692
  O         0.0304432631        0.0172106905        0.0119367414
  H        -0.0109133448       -0.0040155234       -0.0102130383
  H        -0.0041276780       -0.0046268068        0.0116390920
  O         0.0300181645       -0.0007454344       -0.0201810357
  H        -0.0122785388        0.0013346832        0.0171163128
  H        -0.0194532260       -0.0002958815        0.0081181905
  O        -0.0136542619        0.0008323545       -0.0063522448
  H         0.0085908257       -0.0047276938        0.0166410341
  H         0.0032298755       -0.0062801525       -0.0038766933
  O        -0.0004723980        0.0049227574        0.0084768238
  H        -0.0039839230        0.0021588560       -0.0045838525
  H         0.0013345371       -0.0040285045       -0.0033677799
  O         0.0027060444        0.0372351180        0.0254882628
  H         0.0160405153       -0.0244619225        0.0037081451
  H        -0.0139728612       -0.0203294644       -0.0222622581
  O         0.0191834499       -0.0297709071       -0.0087784677
  H        -0.0134456321        0.0358596433        0.0048222023
  H        -0.0021904468       -0.0045937873        0.0107215870
  O         0.0259808247       -0.0104017040        0.0095525925
  H        -0.0301684660        0.0237407515       -0.0021407220
  H         0.0027153979       -0.0163045793        0.0083467002
  O        -0.0063539647        0.0277242139       -0.0250345794
  H         0.0006034570       -0.0098488539        0.0129994055
  H        -0.0094469576       -0.0065534585       -0.0009427979
  O        -0.0348018194        0.0240079518        0.0439760704
  H         0.0477669394       -0.0221738325       -0.0146993530
  H        -0.0089742674       -0.0028639461       -0.0208184165
  O         0.0171211521       -0.0132782128        0.0013025917
  H         0.0032285169       -0.0006113543        0.0047962426
  H        -0.0125251217        0.0079383738       -0.0042636484
  O         0.0083143685       -0.0147349332        0.0066390782
  H        -0.0059328757        0.0033502111       -0.0046827711
  H        -0.0012012623        0.0124209532       -0.0103109162
  O         0.0379834355        0.0164488062       -0.0359561766
  H        -0.0185971164       -0.0166246840        0.0216678830
  H        -0.0122761964        0.0010091738        0.0110362958
  O        -0.0110536038        0.0070622039        0.0018115820
  H         0.0072103884        0.0020000768       -0.0023576634
  H         0.0088211906        0.0016336293        0.0023132491
  O        -0.0008901550        0.0072552971        0.0413610887
  H        -0.0153397965        0.0012732608       -0.0155651078
  H         0.0152203241       -0.0097379039       -0.0283358796
  O         0.0045637944       -0.0135184230       -0.0032432896
  H         0.0090179813        0.0006873285        0.0015983937
  H        -0.0086854354        0.0179213159        0.0088931868
  O        -0.0011723152       -0.0026365934        0.0203534615
  H         0.0007776338       -0.0028953221       -0.0070691916
  H        -0.0052770166        0.0076201333       -0.0011244180
  O        -0.0288198705       -0.0176831546        0.0284772746
  H         0.0007435363        0.0184965527       -0.0155796309
  H         0.0212240139        0.0039774895       -0.0142290456
  O         0.0268788353       -0.0247142879        0.0173738005
  H        -0.0102201684        0.0146282930       -0.0005947721
  H        -0.0066864297        0.0050643591       -0.0136479129
  O         0.0042950659       -0.0091264001        0.0053941126
  H        -0.0019836851        0.0027387660        0.0030361234
  H        -0.0065785661       -0.0007568132       -0.0010970858
  O         0.0316341340       -0.0361488121       -0.0044104105
  H        -0.0302185965        0.0065876420       -0.0002460970
  H        -0.0002755059        0.0334419799        0.0024738124
  O        -0.0190596954       -0.0068348253        0.0085094301
  H         0.0107575535       -0.0068606375       -0.0123074986
  H         0.0091819060        0.0091918100        0.0034447624
  O        -0.0029143892        0.0102930148        0.0083314745
  H        -0.0036431924       -0.0000936745       -0.0094998753
  H        -0.0032024527       -0.0064801467       -0.0015652338
  O        -0.0208483360       -0.0019585381       -0.0169215336
  H         0.0051733043       -0.0030122289        0.0179278722
  H         0.0057017925       -0.0072448488       -0.0023951908
  O         0.0034638774        0.0061689197       -0.0063163444
  H         0.0024792009       -0.0083251250        0.0028312841
  H        -0.0029258411        0.0067018874        0.0062166984
  O         0.0285212858        0.0143880093        0.0246085757
  H        -0.0285986948       -0.0102460348       -0.0271164351
  H         0.0015887594       -0.0037882929       -0.0001758620
  O        -0.0106016027        0.0082836463        0.0035897816
  H         0.0194220886       -0.0117847383       -0.0026760915
  H        -0.0024190167        0.0018460749        0.0020277133
     288
 i =      200, time =      100.000, E =     -1761.7883401840
  O         0.0165418803        0.0016019941        0.0008360053
  H        -0.0041074020        0.0061573409        0.0057442901
  O        -0.0135628846        0.0036282182        0.0248373642
  H         0.0211371860       -0.0111189612       -0.0223998286
  O        -0.0351697186       -0.0084963476       -0.0192384096
  H         0.0356577744        0.0160687966        0.0219622815
  O        -0.0352632608       -0.0003402726        0.0228767662
  H         0.0270389907        0.0028578672       -0.0049204656
  K         0.0031554602        0.0031366902        0.0032285096
  K         0.0008492499       -0.0029786646        0.0002936909
  K        -0.0093793366        0.0011193337       -0.0025438862
  K         0.0012676140       -0.0028063441        0.0069069132
  O        -0.0030163092        0.0184234891       -0.0277760621
  H         0.0286911000       -0.0109678767        0.0084778116
  H        -0.0271109750       -0.0072366916        0.0161688586
  O         0.0257817521        0.0181599231        0.0000661811
  H        -0.0014085668        0.0023645417       -0.0175257537
  H        -0.0290145007       -0.0095782691        0.0094562085
  O        -0.0176336186        0.0152264477        0.0278747991
  H         0.0105869569       -0.0054860833       -0.0312369902
  H        -0.0016172823       -0.0122604243        0.0001677931
  O         0.0113333357        0.0164338278       -0.0093471096
  H        -0.0144526510       -0.0290379164        0.0075141967
  H         0.0007877118        0.0141982785        0.0042184576
  O        -0.0002536337        0.0021016166       -0.0130552114
  H         0.0048010740       -0.0034052384        0.0033339242
  H        -0.0062526214        0.0051091369        0.0117077134
  O         0.0056771899       -0.0058138927       -0.0053307606
  H         0.0087388745       -0.0019559394        0.0006846551
  H        -0.0111821756        0.0059492560        0.0020121408
  O        -0.0216004725        0.0192534554        0.0373657971
  H        -0.0004672038       -0.0181802829       -0.0134163152
  H         0.0251512871       -0.0035086929       -0.0153757908
  O        -0.0161435770       -0.0424537337       -0.0069860298
  H         0.0160131488        0.0320767481        0.0035565738
  H        -0.0026263982        0.0072068236        0.0018802789
  O        -0.0224331912        0.0345873515       -0.0196766824
  H         0.0158861645       -0.0128479789        0.0161010259
  H        -0.0029210160       -0.0109921107        0.0067106697
  O         0.0001999682        0.0073735256       -0.0203481643
  H         0.0001617017       -0.0047284074       -0.0132637111
  H         0.0034086957        0.0013271119        0.0226444154
  O         0.0221065174       -0.0006507496       -0.0144473505
  H         0.0002022550        0.0049356020        0.0154454535
  H        -0.0121472032       -0.0033762639       -0.0073504897
  O         0.0076709611       -0.0000318462       -0.0024079530
  H        -0.0037643383       -0.0013845553       -0.0019048259
  H        -0.0040249192       -0.0117422991       -0.0057136332
  O         0.0170650122       -0.0022886489       -0.0333102771
  H        -0.0223149706        0.0288674431        0.0292267540
  H         0.0067910162       -0.0285618549        0.0054446935
  O         0.0173063910        0.0062608251        0.0236995436
  H        -0.0072420528       -0.0018142306       -0.0183542884
  H        -0.0106964291       -0.0067399529       -0.0027076296
  O         0.0017084493       -0.0110369697       -0.0007864783
  H         0.0039297801        0.0074887494       -0.0013034987
  H        -0.0076379595        0.0112192642        0.0032580857
  O         0.0083300209       -0.0031037073       -0.0044924267
  H        -0.0125593031        0.0131217434       -0.0043378087
  H         0.0042901656       -0.0081771038       -0.0152107245
  O        -0.0174385392        0.0062412810        0.0222936852
  H         0.0107096953       -0.0136767830       -0.0366922054
  H         0.0072920348        0.0035983091        0.0236412788
  O        -0.0111743847       -0.0124341218        0.0205323501
  H         0.0002115020        0.0004511530       -0.0061887070
  H         0.0148232364        0.0077845344       -0.0102240712
  O        -0.0095319415       -0.0101726976       -0.0073035986
  H         0.0110354651        0.0186513468        0.0055108587
  H         0.0000839632       -0.0075090643       -0.0034398346
  O        -0.0368278376        0.0033385298        0.0123313526
  H         0.0091460858       -0.0185893292       -0.0053573792
  H         0.0264638882        0.0146017473       -0.0045650049
  O         0.0097736025        0.0028364585       -0.0045592755
  H        -0.0070441366       -0.0011875357        0.0013147451
  H        -0.0016545025        0.0079207232       -0.0051938846
  O         0.0201162648        0.0190425313       -0.0048891224
  H        -0.0087007683       -0.0017179576        0.0061681212
  H        -0.0120254206       -0.0201010012        0.0046502359
  O         0.0101960970       -0.0106535820        0.0029991406
  H        -0.0039628955       -0.0014949713       -0.0038766674
  H        -0.0080156609        0.0049646941        0.0034590554
  O        -0.0059335405       -0.0075983751       -0.0416094100
  H         0.0168608137       -0.0087496729        0.0021801925
  H        -0.0053463855        0.0125246806        0.0352657144
  O        -0.0069671541       -0.0050817209       -0.0078371292
  H         0.0087592672       -0.0061858292       -0.0031834992
  H         0.0024051925        0.0055632427        0.0077063126
  O        -0.0041859047        0.0228069653       -0.0281140094
  H        -0.0096379298       -0.0148187901        0.0227295825
  H         0.0104096506       -0.0070030343        0.0018137680
  O         0.0214838542        0.0132411737        0.0191000639
  H        -0.0065416464       -0.0042781164       -0.0013122032
  H        -0.0164864599       -0.0070765072       -0.0160591606
  O        -0.0174621689        0.0291971819       -0.0019368730
  H        -0.0024270346       -0.0224416950       -0.0113768312
  H         0.0172866811        0.0011103714        0.0133024714
  O         0.0088563858       -0.0016849868       -0.0093194221
  H        -0.0054833571        0.0099230557        0.0023851964
  H        -0.0079458976       -0.0049487436        0.0061432860
  O         0.0014275421       -0.0159090515       -0.0026539617
  H         0.0053283986        0.0162811178       -0.0036059360
  H        -0.0053160772        0.0001394014        0.0025893969
  O        -0.0136321859       -0.0044821289       -0.0080639316
  H         0.0185863872        0.0014057739       -0.0011347745
  H        -0.0047635721        0.0032446660        0.0022689556
  O         0.0000728457       -0.0159970840       -0.0213457830
  H        -0.0053344872       -0.0021915521        0.0055662486
  H         0.0000496818        0.0045711323        0.0073392885
  O        -0.0098383633        0.0137621790       -0.0345193082
  H        -0.0062640392        0.0099753415        0.0014327997
  H         0.0156330550       -0.0233824950        0.0297257241
  O        -0.0058226018       -0.0469081636       -0.0411236042
  H         0.0227431719        0.0233281241        0.0345425942
  H        -0.0099529072        0.0221127456        0.0085794318
  O         0.0049998145        0.0184338007        0.0120079285
  H        -0.0043441686       -0.0066792047        0.0037647518
  H        -0.0004086889       -0.0051174604       -0.0112076129
  O        -0.0036380962       -0.0135908573        0.0348698560
  H         0.0059248830        0.0151496660       -0.0235118247
  H        -0.0047755412       -0.0134082893       -0.0085715683
  O        -0.0082258160        0.0001121008       -0.0085139083
  H         0.0124943724        0.0021546478        0.0103792872
  H         0.0040602673        0.0024697920       -0.0044378857
  O         0.0187183409       -0.0213621766       -0.0072408096
  H         0.0072340999        0.0066577328        0.0067073229
  H        -0.0217823084        0.0133740227        0.0055126996
  O        -0.0262488739        0.0084559647        0.0056586071
  H         0.0213375220        0.0025213447       -0.0054379531
  H         0.0031517029       -0.0148593049       -0.0023107383
  O         0.0141660117       -0.0016854804       -0.0014577838
  H        -0.0073705053       -0.0009619217        0.0008733863
  H        -0.0158313853        0.0065504706        0.0042990160
  O         0.0003848375       -0.0069171084        0.0211642120
  H        -0.0066025258        0.0146291438       -0.0120139591
  H         0.0085454151       -0.0026898892       -0.0185832335
  O        -0.0281345021        0.0347640398        0.0139981150
  H         0.0387569054       -0.0308784507       -0.0099531919
  H        -0.0136699804       -0.0078107888       -0.0089226353
  O        -0.0086609250       -0.0064171699        0.0050350786
  H        -0.0022103789        0.0021754865        0.0058207760
  H         0.0066746976       -0.0011301719       -0.0080001836
  O         0.0001811655        0.0179423888        0.0163079451
  H         0.0190711506        0.0014190826       -0.0057179135
  H        -0.0024618144       -0.0125731171       -0.0020863804
  O         0.0113222814       -0.0090405142        0.0145783184
  H        -0.0073457725        0.0050552082        0.0052611009
  H        -0.0007260414        0.0016365156       -0.0175926828
  O        -0.0000147046       -0.0041655153       -0.0248658036
  H         0.0146476556       -0.0076647346        0.0045916266
  H        -0.0152586763        0.0033844114        0.0239639928
  O        -0.0284654863        0.0150219186        0.0509514972
  H         0.0180250601       -0.0269110207       -0.0088714329
  H         0.0086213994        0.0069737365       -0.0379308282
  O         0.0063832833        0.0103359608        0.0393175880
  H        -0.0097172399       -0.0052137838       -0.0075421326
  H         0.0032594118       -0.0028183372       -0.0255263916
  O        -0.0216604195        0.0235269944        0.0000945603
  H         0.0342144493       -0.0172370793       -0.0029838145
  H        -0.0063181532        0.0030928940        0.0021131025
  O         0.0351489957       -0.0292130095       -0.0040568223
  H        -0.0160723046        0.0020643763       -0.0112796389
  H        -0.0141132883        0.0183335397        0.0076910050
  O         0.0128372724        0.0255377827        0.0018004180
  H        -0.0137250254       -0.0083164492        0.0011015103
  H        -0.0024523486       -0.0155458044       -0.0029431636
  O        -0.0297204825        0.0154505537       -0.0042385991
  H         0.0098388279       -0.0159536157       -0.0060056432
  H         0.0164557480       -0.0008296306        0.0064833100
  O        -0.0383364466       -0.0114205018       -0.0038506399
  H         0.0136329532       -0.0069390167        0.0087078890
  H         0.0216246644        0.0096078923        0.0019185797