288
energy=-47937.50080390 pbc="T T T" Lattice="14.2067 0.0 0.0 0.0 14.2067 0.0 0.0 0.0 14.2067" Properties=species:S:1:pos:R:3:forces:R:3:
O 6.936530 2.349206 10.089845 -0.269498 -1.886673 1.165761
H 7.296030 1.623075 10.796782 -0.111236 1.180449 -1.219493
O 7.419247 6.357197 3.656336 0.138890 -0.235781 1.383200
H 6.658050 6.329360 4.330630 0.943951 -0.025819 -0.550700
O 8.238697 10.152244 12.934643 -1.049736 2.625524 0.083785
H 7.472760 9.764365 12.512852 -0.698710 -0.614498 -0.160541
O 2.867478 2.964257 5.075129 -0.647049 -1.091520 -0.365802
H 2.188898 2.238751 4.921785 0.724033 1.034165 0.124113
K 12.314652 6.734475 3.466485 0.192270 0.191980 -0.394524
K 5.600720 0.464864 13.453719 -0.125494 0.155705 -0.099186
K 7.607155 5.023068 1.257028 -0.296534 -0.361503 -0.448334
K 6.571525 4.020275 6.806649 0.000819 -0.215436 0.155259
O 0.923183 0.141622 3.321304 -1.196350 1.216316 2.697045
H 0.115764 -0.453460 3.525278 0.591413 0.351405 -0.614261
H 1.404993 -0.202078 2.607517 1.179938 -1.112650 -2.069134
O 5.492945 11.652119 -1.185421 0.804763 0.861291 -1.448249
H 5.327672 11.248167 -0.328828 -0.038771 -0.247987 1.255972
H 6.432428 11.989479 -1.231995 -0.835093 -0.771548 0.378562
O 3.561823 4.940692 7.018873 -0.082268 -0.404814 -0.622002
H 3.550523 4.518240 7.974229 -0.185986 0.887280 -0.240247
H 3.244528 4.266865 6.352953 0.291604 -0.057532 0.236563
O 11.936933 3.407372 8.953416 0.595193 1.104795 0.303614
H 11.473612 2.694080 8.230244 -0.038526 -0.885613 -0.570815
H 12.359054 4.091251 8.384470 -0.172868 -0.172031 0.060188
O 8.470306 10.834667 1.567365 -1.430387 -1.959967 0.731136
H 8.254854 10.350952 0.702496 0.163094 0.579792 0.666942
H 7.882539 10.355841 2.288974 1.350004 1.028140 -1.589416
O 12.525055 5.427699 10.872539 -1.026814 -0.366592 1.130111
H 12.295435 4.543404 10.453577 0.198077 0.614901 0.138795
H 11.791665 5.531227 11.597110 0.827864 -0.259597 -1.327043
O 5.736308 6.589418 6.136761 -1.056720 -1.021569 -1.021445
H 6.063958 7.214415 6.809324 0.058731 0.569648 0.326478
H 4.808282 6.267934 6.374300 0.754250 0.199849 0.066175
O 6.938286 7.098580 11.604684 1.419382 1.073589 -2.321704
H 6.377785 6.868935 12.319021 -1.368273 -0.514165 1.865547
H 6.579065 7.980918 11.308818 0.181315 -0.693755 0.493511
O 6.306396 10.150476 9.193186 -0.500065 0.302712 -0.646895
H 5.549227 10.321943 8.546882 0.447521 -0.085718 1.240543
H 5.915553 9.821375 10.093988 -0.330400 0.296291 -0.364836
O 6.719349 4.285327 12.855746 -1.267499 0.096595 -1.015403
H 7.030980 3.855628 12.027381 0.267839 -0.006225 0.414103
H 5.795836 4.587702 12.539872 0.986574 -0.060502 0.559104
O -0.381480 8.559427 5.188031 -0.278632 -0.234557 1.191320
H 0.362569 8.698586 4.586359 0.420679 0.277817 -0.922211
H 0.106812 7.969173 5.829530 -0.172694 -0.121683 -0.272389
O 7.443291 12.502429 10.067550 -1.271609 -0.970954 0.350051
H 6.604225 12.984682 9.889091 0.204383 0.250998 -0.280786
H 7.072350 11.559568 9.944897 0.856626 0.975570 -0.130474
O 10.176640 6.997246 8.010572 -0.250666 2.471569 -1.307780
H 10.064507 6.282826 8.631527 -0.145316 -1.334160 1.699026
H 10.026469 7.866064 8.484622 0.181856 -0.983392 -0.214611
O 7.131717 5.134899 9.424746 -0.172945 -0.885378 -1.379040
H 7.081483 5.698143 10.190544 -0.107050 1.396736 1.420590
H 6.651033 4.331566 9.704203 0.071465 -0.359435 0.173357
O 0.145905 2.067454 8.660472 -0.659106 0.763375 0.434570
H -0.757737 2.450622 8.919108 0.732527 -0.378907 -0.109403
H 0.038390 1.086031 8.676411 -0.127949 -0.294846 -0.154227
O 4.716381 1.172134 3.971984 1.163521 -0.386450 1.047184
H 5.371530 0.781605 4.666823 -1.220821 1.138170 -1.167704
H 4.129230 1.879629 4.407396 0.054059 -0.215165 0.186915
O 4.502504 1.749805 7.160203 1.154030 -0.454165 -1.847813
H 3.969497 1.749941 7.933308 -1.067240 0.328754 2.446665
H 3.829565 1.907679 6.465665 -0.129227 0.559782 -0.801509
O -1.103797 7.178561 8.435573 1.030020 1.092525 -1.178395
H -0.227786 7.627830 8.608870 -0.859150 -0.606149 0.354363
H -1.426609 6.728981 9.225316 -0.045553 -0.291681 0.875957
O 2.701101 9.855328 5.612209 -0.343315 -0.624908 0.024319
H 3.031165 8.988436 5.260482 -0.263846 0.333415 0.056172
H 2.904845 10.503308 4.891062 0.278298 0.022781 0.075960
O -1.208117 8.020011 0.604524 -2.327530 1.092877 1.904289
H -2.133780 8.364223 0.993410 2.397376 -0.829868 -1.299879
H -1.390641 7.720394 -0.297622 0.051740 -0.116311 -0.419809
O 0.312894 10.288395 12.124928 -0.642862 -1.188556 -2.574832
H -0.594385 9.894816 11.863156 0.436040 0.835928 1.326101
H 0.729869 9.979407 11.228219 0.090318 0.839060 1.215578
O 0.249699 3.540726 6.375437 0.557312 -0.256588 0.371412
H 0.205650 2.965315 7.221486 0.139138 0.270372 -0.712814
H 1.236894 3.583312 6.166482 -0.865171 -0.075453 -0.040332
O 10.013548 6.818143 1.249836 -0.717205 0.553020 0.646117
H 9.279337 7.110281 1.836867 0.442497 -0.035826 0.026443
H 9.793617 7.444449 0.328689 0.463766 -0.572492 -0.277361
O 3.104687 12.605123 9.367083 0.314358 0.750223 -0.551913
H 3.867554 13.037443 8.848775 -0.613903 -1.062425 0.639179
H 3.311979 11.650939 9.467125 0.182933 0.198779 -0.285025
O 11.858769 12.409324 7.332033 0.018123 0.303310 0.677476
H 12.173425 11.576089 7.755678 -0.260456 0.045620 -0.420672
H 11.981092 12.235402 6.388408 -0.018932 -0.320770 -0.484301
O 7.318883 9.347554 4.172623 -2.266602 -0.585186 -1.233847
H 8.190850 9.498301 4.443332 3.169460 0.633861 1.198218
H 7.235199 8.381504 4.295419 0.037091 -0.398626 -0.320196
O 4.269183 10.118250 1.179701 2.249232 1.836555 2.503373
H 3.361658 10.002151 0.988313 -2.538525 -0.678543 -1.144033
H 4.183089 10.636586 2.072952 0.455005 -0.898070 -1.533525
O 9.244060 5.450365 5.892063 -3.200185 1.888827 -0.642285
H 9.405816 6.122938 6.577486 0.240710 0.483395 0.607570
H 8.191495 5.935728 4.157515 -1.023578 0.579423 -0.137179
O 10.217040 3.953821 0.733524 0.675983 1.049152 -1.373788
H 10.612750 4.771614 1.136126 -0.479490 -0.258477 -0.112933
H 10.243407 4.252789 -0.249400 -0.195416 -0.648746 1.139793
O 7.388221 0.737993 5.197326 0.689859 1.993903 0.081372
H 7.250164 -0.192468 5.491967 0.280432 0.134689 0.669622
H 7.846351 1.318601 5.919507 -0.898925 -1.730950 -0.796817
O 4.159695 5.287752 12.078309 0.036553 -0.523507 0.597409
H 3.864486 4.362559 12.321995 -0.109259 0.075814 0.281302
H 3.886630 5.226776 11.132802 -0.060515 -0.141893 -1.266484
O -0.501498 1.376434 12.075826 -0.319749 -0.114346 -0.591419
H -0.197895 0.549929 12.609418 -0.121387 0.653697 -0.782002
H -0.452393 1.198728 11.089397 0.139738 0.022927 1.248405
O 1.597539 9.522065 0.135130 0.231498 -0.107549 0.718596
H 1.025778 9.026308 0.774699 0.120531 0.018583 -0.625965
H 1.095203 9.720144 -0.696561 -0.480646 -0.109059 -0.057068
O 2.895428 2.926954 1.571945 0.169580 -2.545788 1.034591
H 2.995087 1.995204 2.004704 -0.189689 1.846886 -0.220427
H 2.765526 2.591661 0.664707 -0.113157 0.540701 -0.917757
O 2.847373 6.069332 0.296827 -0.800363 -0.064467 2.254715
H 2.157031 5.820082 1.007742 1.007986 0.246303 -1.624308
H 2.571402 5.670983 -0.540749 -0.238270 -0.314040 -0.248048
O -0.296290 4.590602 1.401116 -0.067852 1.108960 -0.475485
H -0.499039 3.735549 1.797447 -0.138879 -0.914325 0.418466
H -0.225298 4.460777 0.431291 0.132100 0.016237 -0.041889
O 1.443527 6.640816 5.808036 -0.121182 -1.117962 -0.302851
H 1.253899 5.964110 5.086418 0.085651 1.123139 0.177183
H 1.967825 6.064983 6.409636 0.294134 0.326512 0.468007
O 4.287867 7.476564 9.011272 1.818733 -0.907067 0.235629
H 4.373919 6.498889 9.183108 -1.094032 0.147085 -0.085840
H 5.244255 7.681849 8.847050 -0.441189 0.149468 -0.040388
O 11.643503 9.965766 12.008259 -0.358727 -0.883342 -1.365954
H 11.280008 9.120727 12.401075 -0.114353 0.462042 -0.058965
H 11.217706 9.994720 11.078706 0.335271 0.013161 1.239446
O 12.044232 9.655592 7.140299 1.133605 0.022488 -1.510445
H 12.165905 8.838726 7.628440 -0.071559 -1.016123 1.095240
H 12.744811 9.484931 6.407829 -1.053360 0.614651 0.608389
O 5.462323 10.512875 5.423073 -0.475175 1.119465 0.514431
H 5.078300 10.061663 6.185450 -0.230090 -0.305651 0.257681
H 6.251767 10.015731 5.109114 0.463064 -0.407722 -0.230940
O 9.955063 -0.759612 9.574546 0.097009 -0.154806 -0.205282
H 10.629879 -0.286557 9.063533 0.344134 0.202404 -0.209470
H 9.121520 -0.503832 9.135770 -0.115151 0.044168 0.128767
O 5.420874 9.466260 11.473914 -0.451344 -2.238509 -1.696088
H 5.234610 10.233080 12.023023 -0.338872 1.253124 0.981067
H 4.585659 8.865501 11.368774 0.565377 0.791055 0.913441
O 2.934660 2.816194 12.620617 -0.390938 -2.937405 -1.713079
H 2.044506 3.288154 12.469270 0.355878 -0.463542 -0.066739
H 2.859368 1.853555 12.016576 0.074982 3.050923 2.347853
O 11.075889 1.767884 7.373990 1.481019 -1.228169 0.155627
H 11.842632 1.076199 7.426229 -1.866288 1.412167 -0.259549
H 11.048180 2.644979 6.006280 0.073498 -0.356004 0.260729
O 12.886261 -1.210838 3.278579 -0.084037 0.447653 0.101317
H 12.529898 -1.972882 3.820992 -0.130669 -0.070187 0.146367
H 12.229343 -0.483138 3.469844 0.117033 -0.404905 -0.156432
O 0.592749 13.427063 12.963394 0.579968 0.178717 0.248041
H 0.508556 12.914535 13.818793 -0.188369 -0.087102 -0.575129
H 0.291356 12.898110 12.201261 -0.293626 -0.788109 0.545427
O 10.416034 1.118196 12.863557 -1.299367 -0.420094 -0.039774
H 10.687353 1.281620 13.788733 0.684857 0.197609 -0.223291
H 11.083152 1.333523 12.202968 0.854843 0.196088 0.311030
O 9.746084 7.981478 13.293386 -0.896628 -0.191356 -1.239207
H 8.941688 7.682458 12.758584 0.867711 0.346953 0.959693
H 8.924562 9.499085 13.003905 1.557111 -1.973250 0.441442
O 7.028748 8.332633 7.551276 -0.233945 0.584410 0.304693
H 7.754657 7.818392 7.902212 0.967212 -0.731736 0.079517
H 6.943976 9.071887 8.245214 -0.208525 -0.103037 -0.299199
O 0.750330 12.008926 1.391650 -1.509639 -1.190797 -1.314599
H 0.478793 11.163799 0.818282 0.825189 1.880833 1.589501
H -0.107988 12.392592 1.759284 0.637564 -0.584133 -0.340788
O 2.981285 -1.075099 5.711032 2.021946 0.470459 1.436411
H 2.671118 -0.203731 5.440435 -0.652493 0.589536 -0.549907
H 3.833953 -0.785376 6.196556 -1.386345 -0.755010 -0.550986
O 0.045675 7.242095 12.305725 -0.929613 -1.458063 -1.803370
H -0.375798 6.613302 11.575523 1.023549 1.565230 1.641919
H 0.646780 7.852988 11.824280 -0.235127 -0.399489 0.061414
O 9.115176 12.387393 4.305066 1.404041 -1.046080 -0.590837
H 9.236981 13.260954 3.875994 0.102545 0.010471 0.117159
H 8.303830 12.286218 4.795982 -1.006309 0.430748 0.288346
O -0.449321 -0.586095 8.835445 1.931128 -2.504642 -0.448217
H 0.316099 -1.239983 9.111449 -1.578229 1.777899 -0.471955
H -0.736355 -1.072117 7.968461 -0.202420 0.923766 1.290647
O 0.979852 9.493644 9.563866 -2.948201 0.911780 -0.610190
H 0.651064 10.170379 8.887463 0.002903 -0.703677 0.705270
H 1.884833 9.496996 9.335730 2.880102 -0.252512 -0.450666
O 8.957455 11.333188 7.845070 1.917720 0.813027 0.497885
H 9.436085 10.797515 7.176914 -0.086752 -0.037281 0.047558
H 9.740925 11.920040 8.238234 -1.740169 -0.823465 -0.677239
O -0.709164 2.491546 3.120812 2.741484 -0.920284 -1.305612
H -0.975834 2.819943 3.960589 -0.778277 0.638665 2.022480
H 0.223303 2.077049 3.267765 -1.668427 0.159336 -0.253210
O 6.578024 12.929938 1.450059 -2.750740 3.120391 0.079603
H 7.021581 13.789433 1.728650 -0.026421 -0.916803 -0.276516
H 7.234211 12.287420 1.398655 2.640125 -2.288252 -0.001098
O 3.087402 0.042869 11.564877 0.257810 0.491984 -0.467974
H 2.310417 -0.345817 11.980720 -0.724198 -0.117163 1.139877
H 3.029394 -0.422331 10.687758 0.525288 -0.122410 -0.183750
O 8.051771 0.381675 11.683535 -1.509590 2.920797 1.540647
H 8.921481 0.663442 12.050950 0.515282 -0.486038 -0.010475
H 8.020784 -0.395400 11.161233 0.732792 -2.308606 -1.206458
O 9.906714 5.325695 12.324779 0.490913 -0.004270 0.548301
H 9.497115 5.300146 11.439065 0.202865 -0.416724 -0.424309
H 9.902889 6.281127 12.569341 0.116361 0.309707 0.465486
O 4.654500 5.112621 2.768793 -3.428219 -1.971634 -0.042332
H 4.023002 5.284064 1.969592 1.434025 -0.144895 1.019182
H 4.027800 4.341785 3.207951 1.805943 2.252025 -0.854668
O 12.586677 5.612324 6.034971 0.207947 -0.678418 -0.027801
H 13.290818 4.890333 6.239974 -0.224323 1.023283 -0.118886
H 12.734313 6.393137 6.626398 0.128004 -0.760603 0.268535
O 5.314079 7.769068 -0.005795 0.984699 0.676369 0.742601
H 5.424937 8.554059 0.636045 -0.836369 -1.345047 -0.956003
H 4.575581 7.212664 0.310328 -0.191899 0.338919 0.109201
O 12.143543 11.876329 -0.442359 -1.509359 1.721104 1.177425
H 11.831384 11.296393 -1.149479 0.166907 -1.129132 -0.835734
H 11.302087 12.434831 -0.357721 1.480254 -0.412818 0.207944
O 1.395471 8.125192 2.934343 0.963356 0.819797 -0.075620
H 2.231389 8.631325 3.229215 -1.047849 -1.316886 -0.732864
H 1.691898 7.264046 2.537202 0.074567 0.865173 0.786223
O 11.285953 9.992013 2.220528 -0.060749 -0.485287 -0.133063
H 11.749698 10.618404 1.630065 0.112826 0.207843 -0.245814
H 10.350817 10.040266 1.910781 -0.177043 0.252690 0.087707
O 3.149145 7.953349 11.890626 -1.112449 0.463388 1.082606
H 3.427827 7.022219 12.054767 0.093774 0.029023 0.018030
H 2.636968 8.197954 12.740066 1.095903 -0.230690 -1.096933
O 0.447908 11.520342 7.023876 1.092464 -0.661850 -1.382578
H 1.315157 11.984736 6.846090 -0.553475 -0.199246 0.293416
H 0.422552 10.907275 6.217962 -0.106793 0.585621 1.209483
O 3.317802 11.639465 3.516142 0.974528 0.471400 0.302344
H 2.452403 12.018416 3.345430 -1.015546 0.105613 -0.589204
H 3.706983 12.380996 4.069853 -0.151133 -0.864241 -0.233196
O 5.551287 -0.560918 8.428052 -0.848577 -0.129603 0.941628
H 5.215562 0.325143 8.212600 0.039367 0.560842 -0.408366
H 6.157877 -0.785000 7.717030 0.659286 -0.261734 -0.855180
O 9.703268 9.625971 10.052304 -0.702003 0.252782 -0.562079
H 9.231947 9.614982 10.922796 -0.000780 0.261283 -0.642396
H 9.189736 10.236597 9.416021 0.581696 -0.515096 0.844608
O 0.499563 3.825240 12.435116 -0.749213 -1.652946 0.906200
H -0.000272 4.477121 11.913106 -0.317310 -0.100276 -0.192887
H -0.005379 2.864749 12.439638 0.820768 1.798012 -0.576468
O 9.288174 2.902378 3.246224 0.360296 0.900979 0.745985
H 8.646642 3.326799 3.855137 -0.698448 -0.278492 -0.312678
H 10.107541 3.121756 3.763564 0.226296 -0.249404 -0.157922
O 3.441088 4.574253 9.529107 -0.211685 -0.461728 0.171582
H 2.484752 4.342484 9.555420 0.301556 0.512140 0.115497
H 3.830426 3.117237 9.626078 0.325719 0.675270 0.027785
O 11.584782 11.112635 4.704781 -1.636674 0.490503 -0.836214
H 10.670179 11.599536 4.672053 0.961097 -0.256993 0.270746
H 11.409384 10.555427 3.880456 0.551745 0.073867 0.406027
O 8.397398 1.794025 7.844181 -0.953236 0.212821 0.338378
H 7.933201 1.937089 8.756792 1.060339 -0.135120 -1.097994
H 9.398012 1.770163 7.840839 -0.089136 -0.125515 0.299105
O 4.099713 2.118659 9.728805 -0.386035 -0.698022 0.571074
H 3.510016 1.860938 10.482070 0.637219 -0.175557 -0.736345
H 6.027869 1.969067 9.867970 0.294544 0.668551 0.294630
O 3.434597 13.627282 0.742821 -1.227294 -0.091511 -0.642695
H 2.769354 12.928659 0.478768 0.745606 0.648608 0.438199
H 3.997779 13.215670 1.406450 0.433655 -0.512827 0.489613
O 9.830019 4.858162 9.664437 -0.625464 0.085198 -0.594853
H 8.903436 4.649194 9.350442 0.629683 -0.084851 0.191704
H 10.524056 4.214095 9.312714 -0.438494 0.033388 0.258068
O 3.545877 9.830618 8.316603 0.415066 -0.052117 0.841095
H 3.084644 9.811290 7.466069 -0.361453 0.263252 -1.105472
H 3.718975 8.866659 8.536553 -0.168114 0.230353 -0.050205
O 11.045470 3.344104 5.258696 -0.333886 -0.964492 -0.727164
H 11.368835 4.129375 5.688886 1.167988 1.063699 0.465904
H 9.994264 4.922113 5.872306 2.399186 -2.040932 -0.073822
O 5.656468 2.268034 1.296405 0.205870 0.133547 0.281712
H 4.794513 2.743031 1.486430 0.816130 -0.681565 0.314378
H 6.057270 1.785419 2.090955 -0.894596 0.752969 -0.955049
O 7.056445 12.559083 6.100854 -2.353558 0.037471 -0.855610
H 6.392925 11.789384 6.027582 0.233234 0.216467 -0.306385
H 7.776316 12.274698 6.634764 1.838003 -0.926560 1.826209
O 4.200603 8.143825 3.808600 -1.262791 -1.706483 -1.248725
H 4.303550 7.157835 3.548464 0.256795 1.667868 0.854701
H 4.927434 8.474698 4.328844 0.891778 -0.164592 0.383082
O 11.637425 1.558670 1.495397 -0.014987 2.477556 -0.061117
H 12.507912 1.806247 1.933379 -0.491724 -0.956864 -0.072184
H 11.259202 2.524328 1.541882 -0.161047 -1.767868 -0.748005
O 7.823111 0.918386 2.306112 -0.635672 -0.588069 0.390437
H 7.817777 0.676777 3.268752 -0.003377 0.435750 -0.133619
H 8.420936 1.685463 2.245210 0.317619 0.226609 0.163757
O 9.827879 8.916664 5.578641 -1.421650 -0.467786 -1.043213
H 10.580269 9.312094 6.027309 1.287421 0.286326 0.552434
H 9.994059 7.960224 5.510273 -0.004446 0.103065 0.376956
O 6.661739 3.567029 4.120408 -1.500108 -1.831556 -0.465242
H 6.050311 4.200516 3.677678 0.293054 0.107914 -0.057545
H 6.141278 2.673558 3.942682 1.172665 1.531919 0.530735
O 1.508272 5.314431 3.341615 0.319567 -2.556883 0.367614
H 0.832432 5.096867 2.652114 -0.133023 0.077832 -0.262492
H 1.772906 4.335652 3.609715 -0.020263 2.004868 -0.184438
O 10.520710 0.308208 3.533672 -0.715521 -0.792478 2.214794
H 9.980379 1.003694 3.986398 0.638348 -0.203148 -0.543758
H 10.722208 0.601370 2.646477 0.235762 1.078676 -1.404173
288
energy=-47939.08439836 pbc="T T T" Lattice="14.2067 0.0 0.0 0.0 14.2067 0.0 0.0 0.0 14.2067" Properties=species:S:1:pos:R:3:forces:R:3:
O 6.709465 2.582421 10.040294 -0.263579 -0.519423 0.235400
H 6.824161 1.765890 10.594938 0.019991 0.641134 -0.574498
O 7.717990 6.577248 3.926189 -0.806770 -0.319985 -0.876309
H 6.965325 6.547637 4.555143 -0.452127 0.202220 0.337923
O 8.320776 9.743791 13.804261 1.303930 -1.736695 -0.656464
H 7.567217 10.198391 13.423593 -0.828038 0.022413 -0.560341
O 2.546922 2.898884 5.078144 0.258651 -1.167180 0.240983
H 1.998273 2.075030 5.120471 -0.182657 0.914258 -0.545080
K 12.142378 7.348331 3.167690 -0.173300 -0.082747 0.366054
K 5.487253 0.813420 13.284500 -0.486494 -0.114502 0.135671
K 7.704186 4.792165 1.420559 0.128863 0.207765 -0.176626
K 6.488208 4.142362 6.854784 -0.102175 0.303214 0.250808
O 1.516420 0.201523 3.971371 -2.090275 -0.198028 0.124043
H 0.707039 -0.349978 3.771616 0.018002 0.516051 0.255674
H 2.090201 0.065241 3.222836 1.159463 -0.014477 -1.158639
O 5.977016 11.547129 -0.678508 -0.112540 -0.117421 -0.739603
H 5.344519 11.429531 0.063897 -0.373173 -0.611393 0.132259
H 6.634307 12.114125 -0.230288 0.165086 0.269305 0.155804
O 3.437690 4.932978 6.825587 0.158925 0.916190 0.737428
H 3.365321 4.685098 7.824874 -0.088955 -0.008621 -0.874592
H 3.402286 4.171112 6.217834 -0.409551 -0.455271 0.283600
O 11.961768 3.536106 8.424258 -0.040916 -0.487774 -0.150333
H 11.549894 2.681774 8.007100 0.047684 0.390202 0.524653
H 12.427734 3.906882 7.652457 0.263038 0.343239 -0.088462
O 8.668658 11.062291 1.753929 -0.374448 -0.626231 2.431693
H 8.503941 10.417358 1.006675 -0.040713 -0.194685 0.409462
H 8.328508 10.648247 2.695367 0.787591 0.428717 -2.723502
O 12.924477 5.270686 10.571296 -0.032557 0.036267 0.280214
H 12.470406 4.686255 9.915996 0.164788 -0.119777 -0.046074
H 12.260324 5.326220 11.324681 -0.255489 -0.122131 -0.124608
O 5.927838 6.907295 5.930408 -1.344727 0.730285 1.449387
H 6.253603 7.546967 6.667957 0.145619 -0.956336 -1.108429
H 4.942431 6.786514 6.123020 1.232402 0.052310 -0.332126
O 7.349887 7.354965 11.578630 0.800931 0.504468 -1.777323
H 7.075846 6.753998 12.243488 -0.364971 -1.662545 1.538221
H 6.636323 8.023587 11.576851 -0.376356 1.031712 0.032669
O 6.217970 10.516685 9.197602 0.003182 0.025088 -0.203664
H 5.334907 10.318659 8.778840 0.533403 0.100435 0.612014
H 6.159514 10.176200 10.137342 -0.584528 -0.061142 -0.409547
O 7.048666 4.221064 12.350195 -1.226395 0.412399 0.184477
H 7.135917 3.587452 11.600210 0.062195 0.183465 -0.090303
H 6.081984 4.532297 12.242625 1.047182 -0.261749 0.176973
O -0.417904 8.582155 5.213020 0.189691 -0.133939 -0.272655
H 0.084942 8.803806 4.396237 0.180715 -0.048885 0.527281
H 0.110135 7.846762 5.648522 -0.037311 0.620308 -0.422626
O 7.240856 13.253879 9.597837 0.045148 -1.381703 0.147650
H 6.405534 13.680043 9.356832 -0.486527 0.700684 -0.450275
H 6.960160 12.293227 9.422903 0.459144 0.664134 0.419955
O 9.977078 6.821195 8.520535 -0.176040 -1.627774 1.394889
H 9.912076 6.138956 9.324853 0.202766 1.248830 -1.486998
H 10.318919 7.709044 8.799264 0.112782 0.008563 0.279740
O 6.710649 5.636769 9.331275 0.338593 0.202697 0.437768
H 6.903636 6.255836 10.098595 0.046579 -0.211339 -0.325252
H 5.860466 5.239806 9.589409 -0.102332 -0.177579 0.288859
O 0.171650 1.726987 9.135356 0.352238 -1.787461 0.585549
H -0.557689 2.356219 9.075031 -0.969744 0.210484 -0.090505
H -0.189933 0.760417 9.267254 0.374957 1.600662 -0.567811
O 4.552471 1.733313 3.750851 0.329122 -0.992383 0.924690
H 4.862538 1.102717 4.471428 -0.328774 0.681555 -0.875385
H 3.707837 2.128206 4.148787 0.100315 0.288130 0.124318
O 4.164162 2.014239 6.812054 0.296409 -0.636853 0.488687
H 3.783283 2.147868 7.703285 0.303563 -0.249175 0.663521
H 3.417684 2.314362 6.211316 0.094364 0.448847 -0.680194
O -1.104051 7.607975 8.456044 -0.799347 -0.242457 -1.720710
H -0.452804 8.312783 8.633064 0.513971 0.324679 0.763660
H -1.308530 7.029538 9.194902 0.206404 -0.296635 0.973987
O 2.859078 9.239154 5.530641 -0.640952 -1.530095 2.548693
H 2.937102 8.335233 5.144178 -0.032235 0.168839 -0.161533
H 3.201012 9.822618 4.890218 0.576879 1.625617 -1.997931
O -1.036618 8.067122 0.671498 -1.234026 3.730216 2.193679
H -1.629827 8.915365 0.599211 1.140578 -2.308724 0.067215
H -1.341464 7.456907 0.020773 -0.458291 -1.170567 -1.373448
O 0.107528 10.521820 12.053023 -2.373581 0.464152 0.112802
H -0.922379 10.534256 12.172643 1.832757 -0.223077 0.373391
H 0.094599 10.621283 11.082454 0.533499 -0.200891 -0.585639
O 0.008289 3.228717 6.319676 0.069585 -0.705343 1.567635
H 0.418364 2.757058 7.117445 -0.710297 0.507541 -1.078979
H 0.766742 3.673396 5.909813 0.373482 0.060194 -0.345563
O 9.968414 7.630786 1.510603 -0.074988 -1.399800 0.565753
H 9.974869 8.546210 1.756464 -0.049158 1.270480 0.809897
H 9.863603 7.733973 0.564514 -0.062935 -0.569860 -1.645902
O 2.998160 12.788735 9.391364 -0.067341 -0.947333 -0.571702
H 3.555501 12.968345 8.574415 -0.067132 0.275147 0.589274
H 3.050334 11.804513 9.517294 0.006000 0.483287 -0.173015
O 12.155105 12.618436 7.042089 0.224830 -1.428256 0.062291
H 12.317677 11.622197 6.895190 -0.255714 1.487599 0.215240
H 12.102945 12.981085 6.139347 0.179922 -0.037642 0.032956
O 8.113476 9.127019 3.584586 -1.621555 0.308457 -0.991457
H 8.753859 9.095300 4.287824 1.130848 -0.102176 1.424269
H 7.772459 8.177316 3.589084 0.479976 0.341260 -0.176318
O 4.267766 10.185585 1.237822 0.166859 0.732314 1.613974
H 3.396496 9.956135 0.850693 -0.482821 -0.229060 -0.549883
H 3.983151 10.585323 2.120923 0.513628 -0.349526 -0.950729
O 9.207856 5.248773 6.522411 -0.101164 0.613568 0.169790
H 9.689749 5.731332 7.261970 -0.317822 -0.141629 -0.453659
H 8.453489 6.336958 4.486732 1.015528 -0.434524 0.603506
O 10.499210 4.450278 0.666954 -0.366164 0.069173 -0.305710
H 10.965623 5.062950 1.259668 0.040862 0.126346 -0.165641
H 10.643798 4.801248 -0.366696 0.524056 -0.446419 0.601902
O 6.932333 0.518137 5.413583 0.014177 0.341961 0.548523
H 6.817754 -0.337343 5.907420 0.542782 0.300066 -0.187784
H 7.415276 1.162556 6.059678 -0.252784 -0.471680 -0.581544
O 4.292999 5.078892 12.064208 0.661325 0.284359 -0.155808
H 3.975676 4.187759 12.305586 -0.339108 -0.558385 0.248990
H 4.054362 5.108573 11.083853 -0.326060 0.163638 -0.215352
O -0.762592 1.254270 12.074505 0.306939 0.753083 -1.062291
H -0.746357 0.306406 12.244080 0.342887 -0.635565 0.188601
H -0.375020 1.344491 11.147574 -0.331038 -0.068305 0.860547
O 1.957711 9.381316 0.066780 -0.422281 -0.009448 0.246529
H 1.555305 8.760387 0.757769 0.194832 0.283258 -0.279073
H 1.223732 9.896444 -0.332200 0.141422 -0.242483 0.001333
O 1.987419 2.416486 1.250885 3.147492 -1.887872 -0.330324
H 2.696670 1.670482 1.436685 -2.030265 1.091770 0.561307
H 2.495395 2.630994 0.406173 -1.229187 0.654084 -0.023073
O 3.068049 5.858726 0.168186 -1.703031 0.043820 1.149720
H 2.055482 5.804101 0.343005 2.099076 0.075183 -0.687415
H 3.273922 5.691095 -0.776566 -0.243387 -0.087508 -0.236084
O -0.207537 4.891739 1.048518 -0.737698 -0.019915 3.056547
H -0.486362 4.121530 1.655596 0.625385 1.000090 -0.903069
H -0.150323 4.533667 0.174706 0.144371 -0.704919 -1.812472
O 1.261176 6.470846 5.656284 0.191809 -0.092513 0.677626
H 1.525144 6.081226 4.807314 -0.141758 -0.348355 -1.190916
H 1.818632 5.885331 6.228838 0.039073 0.332683 0.552773
O 4.523680 7.252058 8.933310 -0.096154 -1.160534 -0.786962
H 3.995384 6.376529 8.766663 0.694907 1.233480 0.853660
H 5.459771 7.032234 8.686137 -0.530849 0.181500 0.262805
O 11.706326 9.066263 12.036574 0.497804 0.775420 -0.673750
H 10.906800 8.489984 12.289202 0.207165 -0.233067 0.248166
H 11.619471 9.211229 11.061944 -0.036806 -0.100082 0.489006
O 11.834671 9.674346 7.081073 -0.779779 -0.319946 1.539300
H 12.216937 8.920481 7.613263 -0.413829 0.148679 0.332574
H 12.435635 9.673375 6.354234 1.091548 -0.017011 -1.963537
O 5.777336 10.242817 5.496042 0.634591 -0.150461 -0.747625
H 4.939831 9.810016 5.776004 0.354326 -0.262457 -0.344045
H 6.255589 9.723277 4.770656 -0.692758 0.392580 1.053007
O 10.115506 -0.493406 9.031685 -0.363935 -0.743484 0.717800
H 10.283913 0.402129 8.700181 0.047744 0.624830 -0.243213
H 9.139129 -0.603148 9.128598 0.244515 0.258658 -0.083944
O 5.655788 9.439758 11.716294 1.794152 2.145317 1.105728
H 5.777475 10.220044 12.420182 -0.387522 -1.504924 -1.329640
H 4.817639 9.004901 11.915326 -1.573912 -0.438556 0.054677
O 2.862206 2.789382 12.822125 -1.244587 1.382588 -0.114314
H 1.926300 3.232158 12.600505 1.546121 -0.391487 0.438322
H 2.832751 1.958251 12.333468 -0.096564 -1.066306 -0.451425
O 10.610342 1.687127 7.296337 -0.399860 -2.233709 -1.067738
H 10.603889 0.724042 6.928382 0.268754 1.969335 0.878040
H 11.275125 2.288279 5.906091 -0.426617 -0.417385 0.656463
O 13.100570 -0.984905 3.510129 0.354013 -0.240660 -0.132755
H 12.699372 -1.787218 3.974517 -0.179172 0.505829 -0.356717
H 12.362613 -0.452014 3.085730 -0.190937 -0.217466 0.554356
O 1.238561 12.951656 13.037597 0.753710 1.014530 -1.560189
H 1.034204 13.078553 13.968242 -0.699641 -0.972835 0.437523
H 0.964658 12.208101 12.451651 -0.862203 -0.613373 1.367875
O 10.487320 0.294883 13.112184 -1.814154 -0.122459 2.672952
H 10.803343 0.968378 13.800613 0.451479 -0.467435 -1.024352
H 11.045727 0.198976 12.368091 1.536408 0.528445 -1.499530
O 9.875123 7.497552 12.828045 -0.078246 -1.144512 -0.246063
H 9.217644 7.540463 12.110571 -0.511705 -0.082779 -0.033052
H 8.592780 8.898389 13.281833 -0.505559 1.390547 0.893401
O 7.757992 8.187595 7.687725 0.076737 0.057396 0.793140
H 8.471592 7.650643 8.187923 -0.864999 0.531425 -0.658008
H 7.589039 9.018331 8.203108 0.051428 -0.547529 -0.307119
O 0.393259 12.078221 1.564435 1.716242 1.183801 1.489052
H -0.180608 11.712746 0.932310 -1.491895 -1.174842 -1.873485
H -0.223983 12.582879 2.161998 -0.041021 -0.016853 0.375613
O 2.891256 -0.691894 5.880023 1.095403 0.742335 1.773338
H 2.122544 -0.448883 5.331737 -0.122937 0.551298 -0.403959
H 3.200368 0.182620 6.325704 -0.495373 -1.604221 -0.782669
O -0.208806 7.162364 12.798906 1.269102 -0.797861 0.597847
H -0.462789 6.568765 12.103757 -0.348179 -0.592293 -1.177733
H -0.688656 7.975790 12.657498 -0.505049 1.007018 -0.788628
O 8.963313 12.310899 4.132811 0.930289 -1.629906 0.285524
H 9.051994 12.999141 3.488311 0.291717 1.124274 -0.975363
H 8.307289 12.597439 4.755016 -0.850509 0.441172 1.165817
O -0.161078 -1.057282 9.503476 2.084717 0.502050 0.081739
H 0.742500 -1.116588 9.070942 -0.174081 0.194439 1.072695
H -0.626740 -1.444774 8.773316 -1.781609 -0.558664 -1.143403
O 0.254194 9.883079 8.904510 -1.410434 -0.217541 0.770659
H 0.365644 10.432768 8.126652 -0.293216 0.987166 -1.435773
H 1.170370 9.767234 9.104167 2.125459 -0.725364 0.768522
O 9.532038 11.392637 7.861040 2.267009 0.790746 0.341783
H 9.936521 10.847126 7.158511 -0.201601 -0.051742 -0.272247
H 10.330788 12.074879 8.025043 -1.993934 -0.830745 -0.160186
O -0.506911 2.695170 2.993519 1.485491 -3.356103 -1.160349
H -1.184894 2.305486 3.601377 0.145342 0.322247 -0.023563
H 0.063452 1.803508 2.697038 -1.596358 3.249991 1.046999
O 6.594959 12.691345 1.542770 -2.072504 2.752961 -0.328892
H 6.922075 13.604064 1.816485 0.012929 -0.919775 0.253572
H 7.297748 12.062180 1.625504 2.011667 -1.153406 0.572698
O 3.045207 0.022643 11.731078 -0.262595 -1.043688 -1.233979
H 2.262893 -0.486252 12.161877 0.774142 0.958958 0.399738
H 3.100141 -0.551059 10.869985 0.338417 1.149363 0.832515
O 7.770570 0.455345 12.055956 -0.137592 0.906768 2.258463
H 8.508826 0.122218 12.616689 0.324653 0.616648 0.062171
H 7.897977 -0.037505 11.275782 0.017940 -1.594518 -2.523332
O 10.979551 5.130581 12.498950 -2.823741 0.468444 -1.176360
H 10.259460 4.656148 11.925752 1.557528 0.615349 0.852227
H 10.287571 6.264610 12.580350 1.080323 0.305918 0.526396
O 4.408767 5.054799 3.011641 -0.213731 -0.325085 0.925810
H 4.520560 5.102430 2.073631 0.867482 0.600964 -1.864646
H 3.447480 4.811004 2.977536 -0.802691 -0.103138 0.979662
O 12.553208 5.886057 5.826020 -1.261125 -0.409118 -0.185488
H 13.467158 5.900396 5.508960 0.717286 0.045421 0.647950
H 12.500699 6.350134 6.689943 0.488391 0.113062 -0.250113
O 5.704001 6.950528 1.091604 1.106847 1.262394 0.427187
H 6.095790 7.872962 1.288774 -1.077718 -1.555214 -0.722953
H 4.940024 7.028266 0.479837 -0.050047 0.357579 0.233466
O 11.629712 11.860839 -0.299694 -0.881760 -0.005184 -0.482862
H 10.973424 11.310029 -0.783057 0.526314 -0.771227 0.001190
H 11.103801 12.697073 -0.391554 0.580043 0.582551 0.476942
O 1.173625 7.886426 2.189213 -1.078851 -0.317543 0.030704
H 1.831850 7.500416 2.809740 0.475996 -0.155005 -0.261836
H 0.563032 7.183084 1.842480 0.666880 0.399836 0.219173
O 11.247799 10.111313 1.980665 1.470376 0.345185 -0.467120
H 11.714839 10.683197 1.278584 -1.089397 -0.320884 0.930382
H 10.330744 10.474651 2.026588 -0.565720 0.689391 -0.362185
O 3.137793 8.465789 11.993594 0.467271 -0.692304 -1.102171
H 2.699607 7.613923 11.795430 0.268799 0.119629 -0.122594
H 2.690556 8.742292 12.799766 -0.608652 0.451743 1.221904
O 0.949909 11.405694 6.610314 0.441180 0.169642 -0.024498
H 1.634189 12.121483 6.708739 -0.250323 -0.269103 -0.134695