288
REF_TotEnergy=-47940.75262217 cutoff=-1.00000000 nneightol=1.20000000 pbc="T T T" Lattice=" 14.2067 0.0 0.0 0.0 14.2067 0.0 0.0 0.0 14.2067, " Properties=species:S:1:pos:R:3:REF_Force:R:3:Z:I:1
O  6.102411   1.888820   10.888271   -0.970143   -0.202985   -0.216004  8  
H  6.061264   0.923172   10.694075   0.418280   0.368117   0.337466  1  
O  8.717322   6.403380   4.372221   -0.369110   0.012603   0.470968  8  
H  7.740145   6.466664   4.530987   0.776202   0.041767   0.276324  1  
O  7.948178   10.351899   11.801792   2.637309   1.597507   0.949012  8  
H  7.339596   9.794125   11.370459   -1.771905   -1.502692   -1.233588  1  
O  3.136628   1.495238   5.626799   -0.529634   -0.601665   -0.203422  8  
H  2.323335   1.389786   5.078836   0.339939   0.202791   0.433819  1  
K  12.763351   6.179903   3.474497   -0.023663   -0.411062   0.297548  19  
K  4.776172   0.761528   13.458794   -0.036829   -0.155863   0.130856  19  
K  8.254303   5.291629   1.591440   0.042210   0.354641   -0.030274  19  
K  7.074664   4.030177   6.784801   -0.297352   -0.143138   -0.037121  19  
O  1.309555   -0.962122   3.287294   1.277022   0.527760   -0.299375  8  
H  0.496043   -0.703336   2.772864   0.397725   0.201413   -0.062270  1  
H  2.137815   -0.529218   2.858343   -1.422791   -0.394504   0.266001  1  
O  5.979386   12.494801   -0.934999   1.810665   -0.687828   -0.896937  8  
H  6.476966   12.323982   -0.074434   -0.335325   0.165065   -0.561549  1  
H  6.705350   12.282073   -1.634477   -1.608724   0.324496   1.446648  1  
O  4.084832   4.452406   6.070361   -0.338791   0.954949   1.299327  8  
H  3.805857   4.505376   7.054210   0.108049   -0.068714   -1.684645  1  
H  3.926727   3.525987   5.822916   -0.241229   -0.257442   -0.079189  1  
O  11.038731   4.214226   8.599536   0.398491   0.189200   -0.597374  8  
H  10.825001   3.285353   8.430744   -0.559927   -0.572106   0.503516  1  
H  11.801156   4.273122   7.981402   0.256116   0.719491   0.093006  1  
O  9.025321   10.138027   0.442416   -0.361024   -0.827336   -0.168654  8  
H  8.633420   9.879877   -0.438595   0.025504   0.614724   0.579092  1  
H  9.121911   9.180668   0.926166   0.078557   0.744132   -0.996825  1  
O  13.431016   3.887872   10.409921   -1.570235   -1.514767   -0.803193  8  
H  13.820780   3.239096   9.722087   -0.208429   0.855121   0.548530  1  
H  12.429786   3.640866   10.287585   1.920420   0.729670   0.384131  1  
O  6.168141   7.494081   6.088436   0.968024   -0.331366   -0.461882  8  
H  6.578934   7.587512   6.991780   -0.897152   0.360976   -0.330837  1  
H  5.197390   7.405577   6.057658   0.019402   0.254600   0.571853  1  
O  7.001463   7.326501   10.585433   2.375499   -0.587735   0.021296  8  
H  7.859061   6.783499   10.405914   -1.309050   0.663064   0.729513  1  
H  6.376636   6.719042   10.163451   -0.737551   -0.611970   -0.185535  1  
O  5.685760   11.107513   8.572532   -0.005018   0.928930   -0.395083  8  
H  5.733697   12.059860   8.275692   0.245787   -0.858597   0.313584  1  
H  4.836316   10.764753   8.178992   0.130342   -0.196798   0.132125  1  
O  6.954734   4.024150   12.620907   0.013451   0.227546   -1.672693  8  
H  6.667163   3.237327   12.081449   0.145844   -0.131603   -0.044781  1  
H  6.879379   3.682587   13.514573   -0.298193   -0.358505   1.343041  1  
O  0.182623   9.781882   5.703672   0.401326   0.093937   1.151461  8  
H  -0.247799   9.577001   4.874223   -0.242643   -0.256261   -1.067204  1  
H  1.132620   9.575477   5.568104   -0.220644   0.054401   -0.162859  1  
O  7.142941   13.320567   10.411016   -0.303535   2.023492   -0.924638  8  
H  7.267300   13.567419   9.447376   -0.317532   -0.375916   0.736741  1  
H  7.508974   12.455868   10.513728   0.502538   -1.734289   0.029960  1  
O  10.236844   7.284854   7.961735   1.290946   -1.698843   0.515905  8  
H  9.346175   7.641058   8.053744   -0.754890   0.014502   0.509892  1  
H  10.444575   6.473556   8.555155   -0.997843   1.390629   -1.023542  1  
O  5.868434   5.053756   9.395549   -1.596922   0.017592   -0.198485  8  
H  6.575916   4.741031   9.965314   1.457104   -0.190272   0.234975  1  
H  5.113413   4.538001   9.787480   -0.130046   0.059983   -0.325375  1  
O  0.207237   2.852596   8.036761   1.238437   -0.840330   -0.242815  8  
H  1.157034   3.143563   8.071040   -0.517259   0.202590   0.034253  1  
H  0.356439   1.823812   8.109833   -0.448079   0.684040   0.017819  1  
O  4.802002   1.504985   3.867199   2.279758   -0.826795   -0.245103  8  
H  5.691456   1.063380   3.997882   -1.021910   0.383082   0.029820  1  
H  3.949086   1.343510   4.907143   -0.389859   0.312166   0.207142  1  
O  4.825443   2.246702   7.660700   0.736690   0.008365   0.887903  8  
H  4.306606   2.504799   8.499728   0.379387   -0.450310   -0.027441  1  
H  4.161519   1.939072   7.040846   -0.962145   -0.280762   -0.712117  1  
O  0.346580   5.969032   9.060269   0.365941   0.892874   -0.477994  8  
H  0.477000   6.749606   9.630141   0.159781   0.684957   0.003274  1  
H  -0.185030   5.401927   9.630563   -0.974397   -1.339722   0.777291  1  
O  3.407407   8.412491   5.614938   -0.479514   -0.413995   -0.476352  8  
H  3.043712   7.516316   5.319026   -0.130710   0.883696   -0.079683  1  
H  3.419089   9.001467   4.818069   -0.089517   -0.586961   0.511969  1  
O  -0.908968   8.029211   0.614165   0.378123   0.427486   -1.039489  8  
H  -1.298977   8.947650   0.540434   -0.509952   -0.493342   -0.033881  1  
H  -1.600732   7.336169   0.614915   -0.534106   0.065200   0.155400  1  
O  0.798073   10.194266   13.043283   -1.087971   0.005974   -0.663039  8  
H  -0.176314   10.108295   12.800523   1.246422   -0.108958   -0.043435  1  
H  1.276408   10.209833   12.179257   -0.114195   0.061212   0.087268  1  
O  0.415392   3.788235   5.095332   0.485958   0.585677   -0.933399  8  
H  0.489943   3.508471   6.019900   0.189901   -0.463782   0.615408  1  
H  1.188256   4.394060   4.904356   -0.601002   -0.279715   0.326626  1  
O  9.432139   7.754152   1.325101   0.368013   0.722931   1.227650  8  
H  9.828724   8.207819   2.137328   -0.065731   -1.024105   -1.118212  1  
H  9.714723   7.700093   -0.597842   -0.072057   0.177517   0.728804  1  
O  2.836058   10.642591   10.683866   0.058687   0.634787   0.999627  8  
H  3.717797   10.255074   11.055078   -0.491076   0.004267   -0.433546  1  
H  2.714552   10.420686   9.755214   0.418502   -0.412234   -0.765130  1  
O  11.460669   10.996956   6.430015   -0.535793   0.234952   -0.365470  8  
H  11.900208   10.149449   6.652798   0.273746   -0.007503   0.120605  1  
H  11.345001   11.027727   5.444906   0.393600   -0.202339   0.418423  1  
O  7.213703   8.479120   2.852640   -0.164467   0.226242   -0.817495  8  
H  7.879957   8.323217   2.107263   -0.350589   -0.257934   0.254593  1  
H  7.657349   8.091932   3.618034   0.623969   -0.409287   0.600210  1  
O  4.931755   8.689663   0.508357   0.163099   -0.394001   0.349721  8  
H  3.979012   8.511452   0.431711   -0.755955   0.270115   -0.864819  1  
H  4.909093   8.554790   1.501371   0.505967   0.201819   -0.183584  1  
O  9.617948   4.644560   5.933559   0.218521   1.123779   1.125844  8  
H  10.042957   4.957899   6.794838   -0.487551   -0.407398   -1.195012  1  
H  9.212851   5.584327   5.364847   -0.005463   -0.464215   -0.619666  1  
O  11.515707   5.865409   0.909686   -0.558459   0.953687   -0.911604  8  
H  10.662415   6.415453   0.992823   0.621762   0.096303   0.226381  1  
H  11.662971   5.862714   -0.088648   -0.176500   -0.698573   0.524728  1  
O  8.079949   1.062625   4.851323   1.276347   0.457329   0.479001  8  
H  8.133493   0.185187   5.308308   -0.132552   0.169251   -0.294648  1  
H  8.968337   1.493040   5.096650   -1.303091   -0.535723   -0.209823  1  
O  4.352566   5.057641   12.072116   1.046706   0.028447   0.686993  8  
H  5.327744   5.016820   12.357205   -1.137866   -0.277013   -0.297043  1  
H  4.050906   4.135183   12.223883   -0.172567   0.108573   -0.203097  1  
O  1.011368   0.464343   11.252621   0.452885   -0.230281   0.807478  8  
H  0.600118   -0.397498   11.528501   0.315336   0.365365   -0.275170  1  
H  1.999439   0.358265   11.392727   -0.808180   -0.516432   -0.578846  1  
O  1.997550   8.841866   0.713553   1.161469   -1.534436   1.222000  8  
H  2.139957   7.844865   0.626197   -0.159929   0.782096   0.197265  1  
H  1.593276   9.124570   -0.114319   -0.743864   0.551361   -0.889608  1  
O  3.378114   0.674441   1.942506   1.669074   -1.862502   -0.211621  8  
H  4.151522   0.726197   2.658544   -1.046295   0.468139   -0.595851  1  
H  2.753781   1.292490   2.282885   -1.244081   1.361809   0.392870  1  
O  2.677407   6.054031   0.803933   0.696459   -0.465743   -1.343386  8  
H  1.775923   5.597374   0.900157   0.217404   -0.076560   0.151890  1  
H  3.107560   5.637395   -0.015221   -0.753265   0.594935   1.208163  1  
O  0.375758   4.818200   1.353316   0.199819   0.236467   1.189105  8  
H  0.622506   3.922627   1.780102   -0.445286   0.521351   -0.644275  1  
H  -0.065301   4.641474   0.506390   0.022106   -0.415668   -0.414516  1  
O  2.141224   6.133987   4.530041   -0.565184   0.405156   0.450601  8  
H  2.289105   6.476112   3.624005   0.302245   -0.491751   0.033029  1  
H  2.813011   5.479730   4.816614   0.781215   -0.131590   -0.381144  1  
O  3.746019   7.243564   9.425584   -0.481840   -0.002054   -0.833065  8  
H  3.180203   6.618587   8.889215   0.114623   0.019429   0.227111  1  
H  4.519111   6.672669   9.555640   0.468245   -0.246187   0.218083  1  
O  12.365109   9.320856   11.599247   -0.394381   0.774364   0.715436  8  
H  11.715076   8.844521   12.181445   0.328693   -0.163292   -0.677273  1  
H  12.646482   8.778872   10.853840   0.276164   -0.819395   0.053779  1  
O  12.429360   8.729994   7.919030   0.824580   0.568917   -0.550641  8  
H  11.626158   8.188869   7.973924   -0.939281   -0.442181   0.409734  1  
H  12.885724   8.337551   7.149469   0.407670   0.026791   -0.128602  1  
O  6.783460   10.273197   4.892297   -0.053560   0.429495   -1.096547  8  
H  6.375672   9.658221   5.518006   -0.164596   -0.624107   0.251311  1  
H  6.608182   9.913004   3.960742   0.493536   0.443446   1.199974  1  
O  11.668055   1.427010   9.579050   -1.934142   0.838503   1.266357  8  
H  12.424585   0.882509   9.444305   1.677556   -1.176993   -0.295197  1  
H  11.376712   1.269179   10.533934   0.233716   0.460433   -1.187718  1  
O  4.939753   9.520697   11.750171   0.416511   -0.348364   0.793169  8  
H  5.138505   9.943115   12.619742   0.020703   0.111854   -0.247696  1  
H  4.550646   8.632155   12.036219   -0.048587   0.765628   -0.388257  1  
O  2.437530   2.585886   12.875842   -0.837939   -1.573776   0.008429  8  
H  1.698420   3.273553   12.914094   0.397649   0.254584   0.139959  1  
H  1.853721   1.754395   12.901079   0.936273   1.193772   -0.133827  1  
O  10.767655   1.574669   6.080395   0.642924   -0.626400   -0.803265  8  
H  11.230062   1.453743   6.942206   -0.051066   -0.387902   -0.533655  1  
H  11.199298   1.004252   5.348072   -0.535069   0.678489   1.206647  1  
O  13.599101   0.275110   1.789547   -1.077200   0.290077   0.607799  8  
H  12.719855   0.443915   2.281860   0.686588   -0.175070   -0.747621  1  
H  13.368886   -0.200129   0.946124   0.037950   -0.042352   0.130793  1  
O  0.197557   11.946415   10.568978   -1.779503   -1.060755   -0.144202  8  
H  1.094455   11.647995   10.408110   0.960371   -0.175701   -0.155064  1  
H  -0.317067   11.117586   10.269630   0.790161   1.486448   0.506279  1  
O  10.263059   2.613831   12.016872   -0.872767   -0.165432   -0.191928  8  
H  9.410980   2.296209   12.435764   0.674461   0.024599   -0.527548  1  
H  10.743105   2.937289   12.800584   0.192946   -0.089569   0.610041  1  
O  10.046201   7.774590   12.689938   -0.527908   0.781469   -1.054644  8  
H  9.366476   8.333016   12.207735   0.629002   -0.626807   0.524219  1  
H  8.802131   10.388782   11.243608   -0.761710   -0.070265   0.139515  1  
O  7.310939   8.683016   8.355142   0.552523   -0.596389   0.234958  8  
H  7.258796   8.171117   9.233435   -0.221048   0.745973   -0.447113  1  
H  6.697482   9.441949   8.465004   -0.191342   0.454871   -0.047576  1  
O  3.136270   11.757302   1.074143   -1.935228   0.398794   -0.041989  8  
H  2.765142   10.854077   1.040627   0.641127   -0.872997   -0.196632  1  
H  2.232674   12.188235   1.180322   1.338720   0.286581   0.103404  1  
O  3.603385   -1.140073   6.657579   -0.145759   -0.723813   -0.012966  8  
H  3.190900   -0.323000   6.304966   0.110563   0.561866   0.047188  1  
H  4.288097   -0.856144   7.297783   0.039643   0.070481   -0.186522  1  
O  0.371180   7.041144   12.261833   0.362701   -0.030222   0.228301  8  
H  -0.089313   7.611750   12.938588   0.508157   -0.457380   -0.317274  1  
H  1.336729   7.316919   12.250719   -0.659863   0.150006   0.161221  1  
O  9.431103   12.546854   3.607092   0.962257   -0.039133   0.369879  8  
H  8.894161   12.327128   2.831747   -0.654986   -0.010773   -0.441274  1  
H  8.838911   12.607426   4.402256   -0.126190   0.042328   -0.118565  1  
O  0.411850   0.325948   8.663729   0.202884   -0.779978   0.820239  8  
H  0.568677   -0.575645   8.289264   -0.005254   0.126133   -0.108679  1  
H  0.740439   0.218795   9.635545   -0.376599   0.526473   -0.992579  1  
O  0.452847   9.056011   9.452494   2.738103   0.111939   0.611225  8  
H  -0.277875   8.876326   8.884133   -1.764431   -0.223181   -1.301899  1  
H  1.219247   9.176057   8.811759   -0.874488   0.147943   0.751385  1  
O  9.251517   11.258155   7.867847   -0.240382   -1.561782   -1.011960  8  
H  8.684224   10.433368   8.126883   1.057706   1.420140   -0.745694  1  
H  10.045094   10.930234   7.225761   -1.055664   0.659843   1.022567  1  
O  0.914658   2.554378   2.546905   0.084525   -0.109705   0.891037  8  
H  0.643068   2.777704   3.496306   -0.030690   -0.408677   -0.739504  1  
H  0.358024   1.804347   2.196624   -0.075860   0.036824   0.189979  1  
O  7.472683   12.259712   1.448232   -0.267229   -0.682749   0.800407  8  
H  6.695536   12.124730   2.116231   0.644834   -0.308502   -0.804299  1  
H  7.899445   11.352042   1.260026   -0.254373   0.582617   -0.118557  1  
O  3.458349   -0.750696   10.636953   0.785127   -0.501911   0.160123  8  
H  4.439779   -0.622463   10.652177   -0.600955   -0.314753   -0.173155  1  
H  3.344515   -1.761926   10.606008   0.006270   0.717762   0.165951  1  
O  8.097779   0.637100   12.832888   0.404146   -0.083097   0.296909  8  
H  8.643354   0.134617   13.463879   -0.025510   0.263749   0.622725  1  
H  8.296803   0.117677   12.036145   -0.498755   0.092067   -0.777681  1  
O  11.679097   5.583422   12.214598   -0.286103   1.155682   0.298826  8  
H  11.053210   4.913676   11.911210   -0.339162   -0.729813   -0.181509  1  
H  11.088971   6.394302   12.204479   0.419149   -0.394329   -0.072556  1  
O  5.323178   5.245463   2.321419   0.237405   -0.079372   0.004066  8  
H  4.833836   5.776075   1.661809   0.100370   0.128461   0.046825  1  
H  4.607426   4.695838   2.746433   -0.531641   0.120975   0.135717  1  
O  12.987422   5.803663   6.677643   -0.420016   -0.222564   -0.336224  8  
H  13.422432   5.079105   6.185276   -0.178510   -0.079272   -0.373319  1  
H  13.610355   5.950074   7.402212   0.440354   0.319490   0.778380  1  
O  6.583184   6.565719   -0.058734   -0.024196   -0.549688   -1.046726  8  
H  5.944416   7.298583   0.083346   -0.326809   0.830633   0.387381  1  
H  6.414862   6.353358   -1.006600   0.479731   0.091596   0.493860  1  
O  13.300906   12.642865   -0.482843   0.474715   0.486465   -0.295206  8  
H  14.063153   12.430638   -1.070359   -0.421754   -0.165678   0.290970  1  
H  12.830417   11.793180   -0.346367   -0.081532   -0.041875   0.321263  1  
O  0.119634   8.102572   2.900066   1.565453   0.885008   0.613811  8  
H  -0.280546   8.045665   1.999072   -0.561186   -0.206486   -0.525175  1  
H  0.921319   8.594470   2.574323   -0.212253   -0.237920   0.598505  1  
O  11.855425   10.405037   0.576876   1.543594   -0.038332   -1.037749  8  
H  11.751264   10.461800   1.534350   -0.631387   0.068632   0.880155  1  
H  10.991325   10.275389   0.152513   -1.000324   -0.015215   0.417454  1  
O  3.153962   7.611754   11.980818   -0.702129   0.042801   -0.326645  8  
H  3.053817   7.663175   10.972920   0.441757   -0.243107   0.855715  1  
H  3.459640   6.693722   12.144441   0.166087   -0.322938   -0.199347  1  
O  1.365504   11.612571   7.715486   -0.024292   0.253138   0.435895  8  
H  2.253397   11.935401   7.436938   -0.204861   0.111013   -0.235711  1  
H  0.840491   11.465759   6.907228   0.068625   -0.207154   -0.173178  1  
O  2.715520   11.248222   4.373651   0.139150   1.914704   1.310657  8  
H  2.039151   11.966632   4.026275   0.824835   -1.257881   0.190680  1  
H  3.132454   11.765983   5.158670   -0.718512   -1.045382   -1.144770  1  
O  6.166097   -0.180679   7.750650   0.986451   -1.530880   -0.451406  8  
H  5.650647   0.628869   7.747002   -0.691401   1.843975   0.247967  1  
H  6.567217   -0.242184   6.845973   -0.112637   -0.236222   0.551325  1  
O  10.125772   10.415607   10.102319   1.335986   -0.534876   0.491213  8  
H  11.047191   9.989076   10.239125   -1.551323   1.220797   -0.110080  1  
H  10.102804   11.080070   9.340117   0.139631   -0.838414   0.429204  1  
O  0.431208   4.235068   12.988395   -0.326734   1.425635   -1.287328  8  
H  0.478044   5.219828   12.693006   0.031031   -0.506448   0.668455  1  
H  0.003230   3.908996   12.155637   -0.485781   -0.336992   -0.048481  1  
O  9.472471   3.068778   2.846565   -1.789579   1.234537   2.261337  8  
H  8.480079   3.352926   3.254944   2.456272   -1.140223   -0.755870  1  
H  10.132015   3.371898   3.578633   -0.461475   -0.147270   -1.070525  1  
O  2.621949   4.845402   8.524369   0.880404   -0.682792   0.066982  8  
H  1.702614   5.142711   8.793938   0.166017   -0.031437   0.246632  1  
H  3.065704   4.217115   9.189667   -0.644067   0.408207   -0.219245  1  
O  11.070501   10.279902   3.565775   0.427541   -0.757700   0.341395  8  
H  10.350066   10.908710   3.780695   -0.305080   0.172275   -0.240797  1  
H  11.015940   9.473120   4.179176   -0.061771   0.638710   -0.530208  1  
O  7.940903   2.406710   9.057714   1.953184   0.845831   -1.848939  8  
H  7.291951   2.145754   9.725468   -0.956301   -0.854875   1.114206  1  
H  8.564838   1.699697   8.783219   -0.631267   0.051894   0.567508  1  
O  3.971549   2.832784   10.041257   -0.568398   0.363153   0.093155  8  
H  3.194045   2.531174   10.564406   0.370773   0.102848   -0.121236  1  
H  5.061469   2.274595   10.499215   0.453603   0.084004   0.118952  1  
O  5.244061   11.529765   2.808412   -0.045774   0.373082   2.126870  8  
H  4.498158   11.696487   2.205039   -0.788803   0.065474   -0.800389  1  
H  4.811112   11.760803   3.704888   0.782660   -0.500742   -1.457088  1  
O  8.439465   4.815939   10.366130   0.234679   -0.695144   -0.166776  8  
H  8.087608   4.536031   11.248239   0.463723   0.035344   0.082193  1  
H  8.743090   3.946090   9.939132   -0.446622   0.921550   0.457305  1  
O  3.629739   9.574520   7.896176   -0.060283   -0.135579   1.046616  8  
H  3.337876   9.248428   7.015701   0.039987   -0.148883   -0.363512  1  
H  3.978379   8.753720   8.337394   -0.271355   0.391842   -0.057820  1  
O  11.664604   3.892851   4.531474   -1.481975   -0.909303   1.464358  8  
H  11.864227   3.039235   5.022527   0.038234   0.951130   -0.801136  1  
H  10.793624   4.167415   5.151429   1.091381   0.204530   -0.731686  1  
O  5.980378   2.851048   0.665144   1.382163   -1.270858   0.893396  8  
H  5.639982   3.332531   1.437449   -0.525541   0.752216   -0.030584  1  
H  6.601725   2.201783   1.143936   -0.343830   0.260419   -0.701803  1  
O  7.842579   12.648577   5.793994   0.220861   -0.469298   0.277376  8  
H  7.378871   11.820522   5.445648   -0.102005   0.140833   0.156124  1  
H  8.410334   12.291050   6.544919   -0.338283   -0.038917   -0.056414  1  
O  4.525076   8.247049   3.104327   1.626690   -1.858844   -0.226792  8  
H  5.539750   8.013664   3.144504   -1.553901   0.338750   -0.012655  1  
H  4.541124   9.186940   3.231091   -0.014167   1.719653   0.127208  1  
O  10.964606   3.070170   0.488215   -0.980088   -0.351460   0.437572  8  
H  10.350622   3.167332   1.283743   0.553175   -0.352788   -0.632876  1  
H  11.736489   3.580678   0.743741   0.472152   0.472661   0.177137  1  
O  7.913252   0.825329   1.945899   -0.149864   0.529287   0.428421  8  
H  8.091656   0.852652   2.928368   -0.187340   -0.004817   -0.488503  1  
H  7.915739   -0.122364   1.711992   -0.164677   -0.333222   -0.080487  1  
O  11.001534   7.969698   4.999172   -1.072063   -0.100712   -0.870139  8  
H  10.817999   7.863932   5.938852   0.266022   -0.154895   0.921887  1  
H  10.086425   7.675440   4.666610   0.293198   -0.372545   -0.123166  1  
O  6.881554   3.547020   3.861292   0.178120   0.317218   -0.324799  8  
H  6.393881   4.339483   3.509683   0.127485   -0.428095   0.145590  1  
H  6.317236   2.754399   3.652700   -0.150453   0.344624   0.319675  1  
O  3.454281   3.705445   3.356173   1.466622   0.739860   1.265422  8  
H  2.740794   3.602783   2.759457   -1.470602   -0.526872   -1.394381  1  
H  3.940899   2.846742   3.468689   0.081697   -0.194802   -0.009043  1  
O  10.992215   0.683394   3.196996   -0.545156   0.425962   0.184594  8  
H  10.240152   1.349854   3.033670   0.998723   -0.605995   -0.137610  1  
H  10.541922   -0.198702   3.217922   -0.124391   0.094929   0.104269  1  
288
REF_TotEnergy=-47940.72724008 cutoff=-1.00000000 nneightol=1.20000000 pbc="T T T" Lattice=" 14.2067 0.0 0.0 0.0 14.2067 0.0 0.0 0.0 14.2067, " Properties=species:S:1:pos:R:3:REF_Force:R:3:Z:I:1
O  5.914903   1.756215   10.581469   0.850617   0.082378   0.042989  8  
H  5.867783   0.863003   10.162896   -0.211211   0.316623   0.295383  1  
O  8.551375   6.431124   4.334777   -0.697431   0.186570   1.277187  8  
H  7.955864   6.797436   5.076479   1.086916   -0.571759   -1.151844  1  
O  8.343203   10.356894   12.116021   -1.808497   -0.436899   -0.989277  8  
H  7.459449   9.984044   11.704799   1.833594   0.826290   1.129344  1  
O  2.980717   1.148083   5.619250   -1.813307   -0.017497   1.176369  8  
H  2.009046   1.079834   5.393537   1.390399   0.146957   -0.253020  1  
K  12.751389   6.361743   3.274344   0.162260   0.161295   0.166016  19  
K  4.696543   0.933348   13.414913   0.043670   -0.153169   0.015102  19  
K  8.504667   5.344819   1.970808   -0.482304   0.057558   -0.130812  19  
K  6.773405   4.100640   6.591936   0.065183   -0.144308   0.355167  19  
O  1.335699   -0.919947   3.649313   -0.155105   0.947373   -1.428301  8  
H  0.460424   -0.583970   3.231172   1.475354   -0.563990   0.435946  1  
H  2.072085   -0.491134   3.075495   -1.394101   -0.372125   0.831435  1  
O  6.292471   12.109606   -0.619422   1.325749   0.933820   0.003403  8  
H  6.475806   12.052903   0.375232   -0.072431   0.121589   -0.901209  1  
H  7.184929   12.461193   -0.954768   -1.491984   -0.492534   0.486257  1  
O  3.888195   4.793915   6.138270   -0.906756   0.782974   1.433378  8  
H  3.411806   4.760747   7.073000   0.544402   -0.282105   -1.606269  1  
H  3.761209   3.928301   5.725771   -0.083164   -0.630456   0.008628  1  
O  11.303412   4.429617   8.515456   0.582783   0.845060   -0.480647  8  
H  11.215156   3.486310   8.378152   -0.743184   -1.493188   0.386395  1  
H  11.829813   4.640695   7.688210   0.040506   0.730104   0.216922  1  
O  9.119743   10.719273   0.456848   -0.013042   0.108069   -0.671325  8  
H  8.722053   10.796629   -0.458706   0.246881   -0.175104   0.171437  1  
H  9.381749   9.699653   0.481073   -0.321522   0.262722   0.602034  1  
O  13.164521   3.803621   10.407694   0.291932   -0.298962   -0.274118  8  
H  13.542029   3.198456   9.738029   0.449370   -0.100578   0.035206  1  
H  12.439874   4.182206   9.855073   -0.575010   0.305923   0.103468  1  
O  6.444172   7.717316   6.420773   -1.110739   0.990051   1.921424  8  
H  6.837122   8.257497   7.202333   -0.024025   -0.934867   -0.689894  1  
H  5.455292   7.705334   6.686032   1.293329   -0.180424   -0.790654  1  
O  7.891420   7.766805   10.925395   -0.830135   -2.183056   -0.359236  8  
H  7.848902   6.732775   10.786279   0.823428   1.649451   0.182886  1  
H  6.940392   7.985707   10.922235   -0.135055   0.370589   0.096688  1  
O  5.924065   11.088413   8.924649   -1.153560   1.778551   -1.011814  8  
H  5.725887   11.910197   8.364296   0.816898   -0.660669   0.827947  1  
H  5.090334   10.597176   8.703168   -0.150204   -0.565236   0.345076  1  
O  6.600130   3.560726   12.571202   0.010283   0.379161   -1.046343  8  
H  6.635444   2.709184   12.101956   0.008315   -0.243144   -0.682047  1  
H  6.734264   3.308047   13.500163   0.175282   0.068243   1.164421  1  
O  0.208342   9.163981   5.746839   1.136761   -0.033463   -0.742912  8  
H  0.292261   8.972776   4.753309   0.010400   0.253799   0.794236  1  
H  1.154034   9.289439   6.028368   -0.624633   -0.173614   -0.377977  1  
O  7.127010   13.646678   10.082021   0.394456   -0.001638   -0.123822  8  
H  7.062770   13.686663   9.094112   -0.193570   -0.071197   -0.097950  1  
H  7.080112   12.716595   10.336454   -0.206969   -0.603813   -0.293806  1  
O  10.385050   7.105132   8.299565   0.877517   -0.117687   -1.712881  8  
H  9.905449   7.560468   8.959450   -1.147480   1.484422   1.502898  1  
H  10.440457   6.230153   8.680070   0.349208   -1.468708   0.279977  1  
O  5.812320   5.036157   9.240119   0.889929   0.321944   1.218678  8  
H  6.540697   5.194913   9.918708   -0.372401   -0.093291   -0.943814  1  
H  5.194488   4.535256   9.807437   -0.550032   -0.346582   -0.139232  1  
O  0.589221   2.313053   7.815168   0.087852   -0.567543   -0.040442  8  
H  1.460615   2.525312   8.192800   0.202077   0.385086   -0.067029  1  
H  0.499819   1.327500   7.991619   -0.392759   0.576917   0.167537  1  
O  4.738700   1.349868   3.922089   0.428346   -0.159599   -0.231010  8  
H  5.413774   0.626896   3.989484   -0.645824   0.674746   -0.223059  1  
H  3.693441   1.261164   4.850320   0.220609   -0.420483   -0.782166  1  
O  4.724271   2.031175   7.472049   -0.896725   0.320939   1.146386  8  
H  4.246726   2.303132   8.416921   0.550714   -0.703288   -1.886787  1  
H  4.012131   1.845183   6.765815   0.374971   0.185032   1.215682  1  
O  0.039218   6.483860   8.779085   -0.574609   -0.639387   1.055815  8  
H  0.245249   7.375305   9.173042   0.010876   0.023199   -0.318236  1  
H  -0.564306   6.036760   9.444672   0.762240   0.400296   -0.525742  1  
O  3.432275   8.223805   6.099283   -0.490151   -0.523100   -0.375566  8  
H  2.928332   7.417676   5.775009   0.567466   0.959090   0.283379  1  
H  3.612158   8.774823   5.297824   0.004318   -0.386131   -0.176883  1  
O  -0.974231   8.290723   0.216930   -1.893761   0.171674   0.634103  8  
H  -1.410183   9.213752   0.384266   0.470310   -0.955900   -0.275487  1  
H  -1.762805   7.669602   0.397817   1.360826   0.750851   -0.234742  1  
O  0.640096   10.258823   13.076794   0.502578   0.145856   -0.234447  8  
H  -0.124088   9.766768   12.723496   -0.362224   -0.061065   0.067607  1  
H  1.328495   10.133707   12.383929   -0.085078   0.407299   -0.267080  1  
O  0.176974   3.479690   5.240855   1.034419   0.979205   -0.251408  8  
H  0.663085   3.040927   5.985949   -0.447411   -0.088341   0.317177  1  
H  0.759725   4.319722   5.020960   -0.618371   -1.033634   0.239124  1  
O  9.666906   8.327468   1.021245   0.524304   -0.547828   0.154222  8  
H  10.324759   8.659856   1.671588   -0.203780   -0.076874   -0.199346  1  
H  10.012626   7.798593   -0.606038   -0.412181   0.255295   0.177872  1  
O  2.783391   11.022544   11.131179   -0.305115   -0.390724   -2.139639  8  
H  3.403733   10.633585   11.759168   0.867017   -0.449926   0.112110  1  
H  3.003937   10.589685   10.214921   -0.274922   0.644044   1.813434  1  
O  11.662866   11.661797   6.073337   -0.358265   -0.261312   -0.403001  8  
H  11.966896   11.094390   6.809203   0.450419   -0.318088   -0.163702  1  
H  11.703205   11.075203   5.265427   0.123680   0.286073   0.396274  1  
O  7.578609   8.508347   2.948371   -0.215248   1.172780   -1.445679  8  
H  8.226547   8.716620   2.178271   -0.495602   -0.762012   1.168801  1  
H  7.907604   7.701487   3.427395   0.535285   -0.360110   0.093268  1  
O  5.174113   8.577776   0.139756   1.104743   0.680888   0.982163  8  
H  4.359981   8.913869   0.577526   -0.336385   -0.219989   -0.067476  1  
H  5.896367   8.828270   0.800908   -0.847767   -0.363888   -0.825794  1  
O  9.745426   4.545645   5.982667   -0.897940   1.501377   -0.099598  8  
H  9.973881   5.376214   6.511518   -0.124803   -1.153997   -0.585019  1  
H  9.163566   4.973305   5.232245   0.888916   0.057098   0.684040  1  
O  11.266030   6.068652   0.946179   0.455413   -0.086645   -0.479223  8  
H  10.593492   6.800431   0.874525   -0.281965   0.510263   0.122652  1  
H  11.520251   5.853881   -0.006784   -0.408594   -0.254474   0.315900  1  
O  7.837955   0.936709   4.953482   0.073407   -0.818075   -0.136472  8  
H  7.684751   -0.037398   5.135162   0.273997   0.837208   -0.185424  1  
H  8.817144   1.034424   5.141403   -0.273363   0.007168   0.133152  1  
O  4.222302   4.987544   12.515499   -0.700994   -0.230480   -0.414663  8  
H  5.014368   4.431007   12.682468   0.955749   0.072288   -0.058352  1  
H  3.631809   4.318215   12.090627   -0.244952   0.166847   0.116674  1  
O  1.542918   0.188208   12.196221   0.003746   -0.822602   -1.097643  8  
H  0.937333   0.498167   11.488860   -0.274310   -0.112694   0.286228  1  
H  1.925284   -0.594507   11.721757   0.002555   0.235057   0.377401  1  
O  2.233957   8.758062   0.700349   -0.505908   0.707679   -1.775052  8  
H  2.507913   7.811502   0.464543   -0.322109   0.512952   0.073677  1  