     225
 i =        1, time =        0.000, E =     -1981.8913603104
  O         0.0151889191        0.0107390353       -0.0030563399
  H        -0.0017288795        0.0028475371        0.0027753110
  O        -0.0132699994        0.0263006980       -0.0160406796
  H        -0.0050970949       -0.0001106968        0.0025247533
  O         0.0153759542       -0.0049585802       -0.0011735573
  H        -0.0165826220        0.0040997991        0.0008721873
  O         0.0098835354       -0.0039953148       -0.0058043235
  H         0.0023490547       -0.0013057786        0.0091034298
  O         0.0038185522        0.0036523238        0.0068617331
  H        -0.0122387336       -0.0165084878       -0.0060400975
  O        -0.0064508430        0.0044409732        0.0096689064
  H         0.0003803511        0.0018736861       -0.0086898219
  O         0.0062877452       -0.0010708880       -0.0022159952
  H        -0.0025445145       -0.0006983585       -0.0038328732
  O        -0.0029569742       -0.0091084647        0.0045469941
  H         0.0056662049        0.0004127015       -0.0070020993
  O         0.0053424826        0.0207472812       -0.0088499948
  H        -0.0033569548       -0.0164214792        0.0122216214
  O        -0.0114569981       -0.0113180716        0.0388248777
  H        -0.0065248774        0.0011336531       -0.0379870207
  O        -0.0030560146       -0.0036467773       -0.0080138787
  H         0.0029131073        0.0005850641       -0.0062423303
  O        -0.0013888667       -0.0091290166        0.0003888244
  H        -0.0020062299        0.0033303859        0.0023811767
  O        -0.0102963988        0.0228854341       -0.0088132387
  H         0.0129574319       -0.0199816178        0.0155534951
  O        -0.0042633142        0.0056053132       -0.0051465325
  H        -0.0031290560       -0.0035848645        0.0020544451
  O        -0.0204271280        0.0024302697        0.0085614644
  H         0.0142860438        0.0034113178       -0.0176518900
  O        -0.0036059124        0.0207545168       -0.0347907298
  H         0.0011239611        0.0028836169        0.0019952644
  O        -0.0124118584       -0.0163228759       -0.0250098160
  H         0.0088555039        0.0134320876        0.0228993119
  O        -0.0191305362        0.0118629551       -0.0111147080
  H         0.0199124043       -0.0096952796        0.0094017217
  O        -0.0006614915        0.0176232449       -0.0237232881
  H        -0.0088059847       -0.0119453381        0.0262743730
  O         0.0088956945        0.0038756289       -0.0054882017
  H        -0.0059199153        0.0003219858        0.0008019761
  O        -0.0030425478        0.0161848139       -0.0348439373
  H        -0.0077403667        0.0021754358        0.0234723385
  O         0.0025897117       -0.0027891003        0.0204875372
  H         0.0061274083        0.0143128465       -0.0139080728
  O        -0.0028510298       -0.0002320146        0.0006572039
  H         0.0133834473       -0.0155852535       -0.0041773964
  O         0.0006900886       -0.0035171623       -0.0083367181
  H         0.0092013119        0.0041378438        0.0033873759
  O         0.0230679486       -0.0141750018       -0.0001679368
  H         0.0075962559       -0.0090690267       -0.0042218578
  K        -0.0017135363       -0.0024735091       -0.0033669353
  K         0.0120459637        0.0086904492       -0.0059873493
  K        -0.0004139085        0.0125598829       -0.0041803127
  K         0.0024939006        0.0024174757       -0.0089963636
  K        -0.0058298911       -0.0089747049        0.0079680571
  K        -0.0111149150       -0.0004340163       -0.0023055660
  K         0.0071980214       -0.0021302021        0.0021723839
  K         0.0016279724       -0.0060735262        0.0050746875
  K         0.0034023398       -0.0081003530        0.0017293167
  K         0.0075243766        0.0162771551        0.0033188523
  K         0.0033216139        0.0058430590        0.0013396520
  K        -0.0022252916        0.0008176339        0.0029372036
  K        -0.0005910565        0.0068042965       -0.0009969380
  K        -0.0049318398       -0.0031597547        0.0029480055
  K        -0.0002528086        0.0084553761        0.0038596257
  K         0.0065679884        0.0009246901       -0.0042074009
  K         0.0055527270       -0.0003508498       -0.0000106429
  K         0.0041244122       -0.0039472219        0.0081603720
  K        -0.0066445359       -0.0101903674        0.0067445319
  K         0.0077229987        0.0029165030        0.0042055591
  K         0.0022744285       -0.0076253390        0.0003538721
  K         0.0063082678       -0.0022345949        0.0034381239
  K        -0.0036499663        0.0011628208        0.0075754737
  K         0.0063737583       -0.0025236279        0.0034320270
  K        -0.0174527504        0.0017838453        0.0033567383
  O         0.0228278459        0.0270144766       -0.0264984265
  H         0.0047455707        0.0023119107        0.0064275282
  H        -0.0232239193       -0.0356147760        0.0160536730
  O         0.0141141298       -0.0211957076       -0.0208526322
  H        -0.0175308270        0.0208416915       -0.0013766031
  H        -0.0108262250        0.0156459345        0.0239112751
  O        -0.0389178560       -0.0113795511       -0.0106945248
  H         0.0090761245        0.0027827044        0.0033541566
  H         0.0244242765        0.0123517172        0.0051356069
  O        -0.0434083924       -0.0184065191       -0.0597630150
  H        -0.0000601392       -0.0198875625       -0.0071354422
  H         0.0396862556        0.0333474534        0.0703166320
  O        -0.0010154335        0.0210776332       -0.0109615962
  H        -0.0077150858       -0.0205811482        0.0115244942
  H        -0.0030043835       -0.0116039740        0.0043155864
  O        -0.0043542666       -0.0449132136        0.0113887198
  H        -0.0197743552       -0.0103915356        0.0009986341
  H        -0.0072268402       -0.0068131752        0.0076264329
  O        -0.0108245731       -0.0028229142       -0.0165943090
  H        -0.0020418080        0.0035664006        0.0085338385
  H         0.0092657461       -0.0061977817        0.0145976776
  O         0.0144139986       -0.0099448690       -0.0017306878
  H        -0.0149038334        0.0205824295       -0.0023711203
  H        -0.0118294814       -0.0080449301        0.0010784052
  O        -0.0336909339       -0.0009110099        0.0273422706
  H         0.0148050470       -0.0070778901       -0.0232038723
  H         0.0123897652        0.0122583553       -0.0088856227
  O        -0.0128192932        0.0298725820        0.0251232782
  H        -0.0093639983        0.0087454370        0.0037116196
  H         0.0206620227       -0.0146228145       -0.0226970608
  O        -0.0002329132        0.0111654555       -0.0361658569
  H         0.0088176677       -0.0061522461       -0.0043976617
  H         0.0144109810       -0.0008922015        0.0324001862
  O        -0.0019625222       -0.0071203344       -0.0099929246
  H        -0.0009448563       -0.0032205538        0.0176764437
  H         0.0047085584        0.0031641912        0.0102518462
  O         0.0870317815       -0.0111781233       -0.0095253682
  H        -0.0168915646       -0.0029713749        0.0013182926
  H        -0.0739936061        0.0085562270        0.0027395286
  O        -0.0267363994       -0.0339745793       -0.0245065424
  H         0.0011973652       -0.0315433425        0.0230340000
  H         0.0246431033        0.0261194807        0.0186333177
  O         0.0153354339       -0.0197525786       -0.0059835098
  H         0.0152177820       -0.0168060031        0.0140247633
  H        -0.0227129423        0.0164054974        0.0047653212
  O        -0.0098321627       -0.0129021493        0.0002659923
  H        -0.0182848319        0.0135035942        0.0127539583
  H         0.0231453437       -0.0013105984       -0.0192132991
  O         0.0349617763        0.0249184465       -0.0167210816
  H        -0.0077880470       -0.0154786042        0.0301368954
  H        -0.0214114890       -0.0057897562       -0.0153863815
  O        -0.0070102322       -0.0392531088        0.0215537795
  H        -0.0000922649        0.0051393316       -0.0150953219
  H         0.0023303968        0.0276174817       -0.0128536832
  O        -0.0323260545        0.0224629613        0.0012904081
  H         0.0011564821       -0.0223959856        0.0106574879
  H         0.0273194985       -0.0060335761       -0.0167922702
  O         0.0068424044        0.0377463051       -0.0036305491
  H         0.0098129253       -0.0176128345        0.0114438227
  H        -0.0276511637       -0.0133948695       -0.0078328732
  O         0.0028400734        0.0145980462        0.0039972713
  H        -0.0158693796       -0.0093911121       -0.0066749939
  H         0.0058754357       -0.0065111477       -0.0047389823
  O         0.0104157304       -0.0048678080        0.0177022382
  H        -0.0090756729        0.0022928810       -0.0297326977
  H         0.0105593672        0.0146074921        0.0182080659
  O        -0.0125197091       -0.0236514133       -0.0104179589
  H         0.0195647214        0.0222213752        0.0100460772
  H         0.0037089748       -0.0039874464       -0.0039936629
  O         0.0096812022       -0.0020675112       -0.0031944899
  H        -0.0047455358        0.0000179247       -0.0045311506
  H         0.0000423317       -0.0030568851        0.0137032362
  O         0.0463537801       -0.0151590952        0.0126925532
  H        -0.0043320695        0.0047939239        0.0006486444
  H        -0.0232186741        0.0065527012       -0.0066972230
  O         0.0042748675        0.0175515459        0.0160048843
  H        -0.0028448172       -0.0059840913       -0.0064010193
  H        -0.0106122383       -0.0030886321        0.0009869288
  O         0.0073985945        0.0002809548        0.0099788986
  H        -0.0033411693        0.0054049592        0.0041802495
  H         0.0086693916       -0.0114324320       -0.0125408586
  O        -0.0172095997        0.0133330315       -0.0006705973
  H         0.0040048663       -0.0151060610       -0.0073454572
  H         0.0121459565        0.0046181678       -0.0009244422
  O        -0.0100029108       -0.0225042722       -0.0114931927
  H         0.0160865114        0.0047357193        0.0154011075
  H        -0.0046064286        0.0046775050        0.0050019132
  O         0.0018200785       -0.0148920332        0.0325871066
  H        -0.0139531744       -0.0026951476       -0.0123738191
  H         0.0129465386        0.0025419056       -0.0243750519
  O         0.0064423145       -0.0033821430        0.0072663020
  H        -0.0187391149       -0.0042742640       -0.0047904542
  H         0.0076484992       -0.0059689831       -0.0093458656
  O        -0.0185418609       -0.0013663064       -0.0133001416
  H         0.0137245940        0.0008071056        0.0131163119
  H         0.0147103314       -0.0272101690        0.0204873406
  O        -0.0048023073        0.0075689297        0.0070572192
  H         0.0029021141        0.0110512410       -0.0032585021
  H         0.0050821606       -0.0153474446       -0.0029295977
  O         0.0441692662       -0.0221372217        0.0226856101
  H        -0.0236409207        0.0131548548        0.0011187098
  H        -0.0030544425        0.0052253584       -0.0152362642
  O        -0.0021434227       -0.0093875772        0.0128964038
  H         0.0057973947       -0.0052586032       -0.0093610086
  H        -0.0039732763        0.0153103729       -0.0112377875
  O        -0.0351122483        0.0201512736       -0.0220840499
  H         0.0137641008        0.0085224334        0.0055814266
  H         0.0154532575       -0.0122267897        0.0144685892
  O        -0.0245140738       -0.0028262351        0.0061441323
  H         0.0037161494        0.0039530469       -0.0012166185
  H         0.0116819743       -0.0018270450       -0.0038201473
  O        -0.0373753062        0.0297714243        0.0072990786
  H         0.0263893687       -0.0120939243       -0.0083500733
  H         0.0144872658       -0.0158607599        0.0016359415
  O         0.0263143641        0.0119656948       -0.0382814425
  H        -0.0043158027        0.0183887325       -0.0025241694
  H        -0.0255618427       -0.0220093474        0.0394988083
  O        -0.0004850697        0.0058998415        0.0073990532
  H        -0.0006065976       -0.0027735578       -0.0003080714
  H         0.0075991375        0.0082341593        0.0053051563
  O         0.0339282657        0.0160567536        0.0156324516
  H        -0.0073078321       -0.0070444548       -0.0108216514
  H        -0.0191155339       -0.0116722480        0.0040922089
  O         0.0063627871        0.0180305543       -0.0327293474
  H        -0.0184643450       -0.0071371144        0.0098589836
  H         0.0090304050       -0.0170293261        0.0062595412
  O        -0.0250080569       -0.0374079657        0.0105545153
  H         0.0288955999        0.0416056022       -0.0078754626
  H         0.0051195092       -0.0068371454       -0.0057147900
  O         0.0080197623       -0.0200991150        0.0079983392
  H        -0.0071678432        0.0020574231       -0.0042576953
  H        -0.0032857184        0.0246610645        0.0055600762
  O        -0.0505680023        0.0156446782        0.0030965159
  H        -0.0107910512       -0.0061427195       -0.0050823116
  H         0.0624507206       -0.0089817355        0.0077917725
  O        -0.0025197136       -0.0026173915        0.0069723691
  H         0.0097560206        0.0047432322        0.0012854769
  H         0.0014361727        0.0493343840       -0.0270846486
  O        -0.0084649060        0.0288321330       -0.0180422668
  H         0.0034767771       -0.0231360766        0.0109465072
  H        -0.0014461188        0.0060318822        0.0040093501
  O         0.0042730833        0.0366212991       -0.0139646798
  H        -0.0049267288       -0.0451881419        0.0072461397
  H         0.0032983239        0.0082168944       -0.0022950269
  O         0.0047737179       -0.0003582838       -0.0013323026
  H        -0.0223163876        0.0208996906       -0.0008156112
  H        -0.0153893337        0.0136321264       -0.0102095968
  O         0.0011467342        0.0240806434       -0.0072687457
  H         0.0034688278       -0.0133102982        0.0034676226
  H         0.0008907152       -0.0114316033        0.0049721356
     225
 i =        2, time =        0.000, E =     -1982.0898076698
  O         0.0055291546        0.0070258940       -0.0129683165
  H        -0.0100910394       -0.0034000857       -0.0046585471
  O         0.0020564567        0.0051558790        0.0288241706
  H         0.0024652339        0.0025543754       -0.0022816553
  O         0.0301444613       -0.0010461904        0.0170353337
  H        -0.0020823121        0.0030553894       -0.0026366747
  O        -0.0013595026        0.0352868530       -0.0126567936
  H        -0.0016735485       -0.0085250020       -0.0025443486
  O         0.0032578856        0.0007252574       -0.0031687881
  H        -0.0029762705       -0.0210206187        0.0020513468
  O        -0.0046427872       -0.0221488101       -0.0072544136
  H         0.0032410382        0.0213043371       -0.0046857963
  O        -0.0241400931       -0.0072815232       -0.0221811641
  H         0.0223988044        0.0064802133        0.0119924185
  O         0.0075381226       -0.0096486189        0.0198929964
  H         0.0006038379       -0.0037659845        0.0043488175
  O        -0.0233782742       -0.0027054312       -0.0311315728
  H         0.0400739331       -0.0154556589        0.0165417665
  O        -0.0002844521        0.0143182389        0.0098191936
  H        -0.0018146242       -0.0057460687       -0.0064871347
  O        -0.0291166695        0.0090978159        0.0145257493
  H         0.0143623733       -0.0036748838       -0.0130984632
  O         0.0211659432        0.0116101097        0.0179736830
  H        -0.0032866815       -0.0137481268       -0.0052533200
  O        -0.0299581023       -0.0197676617        0.0193485227
  H         0.0093837766        0.0124315024       -0.0042637453
  O        -0.0257913054        0.0205606065       -0.0058401179
  H        -0.0002151192       -0.0179210182       -0.0012280389
  O         0.0217798354        0.0144123396        0.0058681378
  H        -0.0160137774        0.0036862233       -0.0015726739
  O         0.0170456183        0.0122899731        0.0028779746
  H        -0.0017075875       -0.0074194283        0.0015718643
  O         0.0158485286        0.0087233677        0.0143361975
  H        -0.0117359484       -0.0016234701       -0.0043171437
  O        -0.0125625102        0.0142517019       -0.0115004683
  H         0.0040844754       -0.0049423647        0.0025737192
  O         0.0114095436        0.0059797138        0.0141068069
  H        -0.0074639163       -0.0010228129       -0.0012711879
  O         0.0032675128       -0.0002825151       -0.0249528533
  H         0.0048200549        0.0059463551        0.0115384066
  O        -0.0204138179       -0.0163946159       -0.0117594370
  H        -0.0047467407        0.0077411102       -0.0063488137
  O        -0.0015012158       -0.0227287802        0.0217264920
  H         0.0015754196        0.0033804056       -0.0139967192
  O         0.0076087130       -0.0251003683       -0.0067407827
  H         0.0062008321        0.0036730299        0.0070471419
  O        -0.0117089754        0.0021314339        0.0072214124
  H         0.0210835708       -0.0027948401       -0.0083533614
  O         0.0055100871        0.0138741461       -0.0222413179
  H        -0.0048181104       -0.0004491742        0.0104765822
  K        -0.0024720609       -0.0017883037       -0.0004442617
  K         0.0005583642       -0.0046700540       -0.0017674977
  K         0.0002975558        0.0110436552        0.0065795845
  K        -0.0067881385       -0.0016544741        0.0037020636
  K         0.0018613100        0.0046072089       -0.0022017303
  K        -0.0029777010       -0.0033201391        0.0045462418
  K         0.0023520855       -0.0008325214       -0.0023376520
  K        -0.0012876867       -0.0034205336        0.0013289721
  K         0.0104268999       -0.0036639571       -0.0004762162
  K        -0.0033380856        0.0049760632       -0.0009544769
  K         0.0015815237        0.0014926069        0.0021787715
  K        -0.0024787391       -0.0006336117        0.0158218855
  K         0.0076083378       -0.0031607641        0.0006242083
  K        -0.0036975836        0.0015620281        0.0029939579
  K        -0.0038543754       -0.0008654844       -0.0023386937
  K        -0.0028787203        0.0009961446        0.0032616001
  K         0.0051901647       -0.0001455554        0.0011410697
  K         0.0028761095       -0.0062852506       -0.0066436039
  K         0.0146177551       -0.0046227085        0.0043290020
  K         0.0031527264        0.0030919424       -0.0011410923
  K         0.0037635352       -0.0029978788       -0.0039051642
  K         0.0141259776       -0.0043082783       -0.0037426023
  K         0.0014834105        0.0019245556        0.0029187775
  K         0.0087134598        0.0029603016        0.0044798928
  K        -0.0037872115        0.0071290151       -0.0042012843
  O         0.0028178295       -0.0013473093       -0.0040391548
  H        -0.0174118941        0.0004117876        0.0043620571
  H         0.0040615956        0.0055318811       -0.0018502771
  O         0.0101303197        0.0156058372        0.0003621624
  H        -0.0019711573        0.0056948733       -0.0060492474
  H        -0.0056317616        0.0146130613       -0.0133117074
  O         0.0212160961        0.0110710449       -0.0069764517
  H        -0.0128535469       -0.0059134731        0.0050699673
  H        -0.0117463780       -0.0077059281       -0.0080029775
  O         0.0096909275       -0.0026614115        0.0017814672
  H        -0.0116380614       -0.0025139519        0.0099787217
  H        -0.0044220704        0.0024925770       -0.0024451931
  O        -0.0025613777       -0.0089851476       -0.0123866315
  H         0.0042675758       -0.0003298539        0.0034531599
  H        -0.0013436306        0.0045637530        0.0032435265
  O        -0.0024123072       -0.0285389411        0.0151496176
  H         0.0024512497       -0.0055082548       -0.0044668120
  H        -0.0121327421        0.0105425559       -0.0012569563
  O        -0.0010978748        0.0221504615        0.0283851318
  H         0.0052673810       -0.0143209625       -0.0231486060
  H         0.0164665874        0.0122299164        0.0087671645
  O        -0.0035530108        0.0023931742        0.0076483306
  H         0.0038003541       -0.0042268270        0.0007138098
  H        -0.0075966502       -0.0084196117       -0.0081762066
  O         0.0052782328       -0.0016291372       -0.0068148228
  H        -0.0094361382        0.0043223091        0.0006548918
  H         0.0097693176        0.0054895708        0.0085360989
  O         0.0321565474        0.0118943240       -0.0005788123
  H        -0.0060240752        0.0029203427       -0.0052094351
  H        -0.0231544133       -0.0013676292       -0.0026560258
  O        -0.0267758427        0.0202592518       -0.0138091398
  H        -0.0067592405       -0.0056779826        0.0049680819
  H         0.0121642975       -0.0197519539        0.0047617863
  O         0.0222111644       -0.0070165728       -0.0026612457
  H         0.0080836965       -0.0064623212       -0.0077021071
  H        -0.0118977672        0.0116673574        0.0056141812
  O        -0.0553754954       -0.0031868841        0.0057219349
  H         0.0476298558       -0.0023102125        0.0183264823
  H         0.0094365628       -0.0049045558       -0.0201909006
  O         0.0292461750        0.0149507043        0.0100862957
  H        -0.0020977951       -0.0027542404        0.0067133334
  H        -0.0148543774       -0.0188002522       -0.0049581040
  O        -0.0087215854       -0.0317780657        0.0167410397
  H         0.0112536666       -0.0013423532       -0.0084289831
  H        -0.0005844087        0.0257408979       -0.0053391012
  O         0.0146814681        0.0007946502       -0.0111904906
  H        -0.0129356796       -0.0032764333        0.0050684921
  H        -0.0031011123       -0.0005701167       -0.0028951670
  O         0.0051015291       -0.0077313129        0.0055131026
  H        -0.0202398134        0.0061055987        0.0026684919
  H         0.0063053763        0.0041273750       -0.0098074178
  O         0.0173642822       -0.0192942748        0.0246590246
  H         0.0015054085        0.0042241650       -0.0081452618
  H        -0.0097566552       -0.0142359575       -0.0119363976
  O        -0.0191483876       -0.0156099091        0.0047513763
  H         0.0037998896        0.0045317663       -0.0064338501
  H         0.0114868806        0.0190481835       -0.0046090961
  O        -0.0096152301        0.0008000168        0.0184946797
  H         0.0032108471        0.0161031142       -0.0128679538
  H         0.0117869103       -0.0296166100       -0.0016038673
  O        -0.0152511603        0.0004731735       -0.0046219414
  H        -0.0046617585       -0.0020166686       -0.0000561324
  H         0.0175515860       -0.0002108234        0.0181793241
  O        -0.0185262735       -0.0013468315        0.0360762868
  H         0.0073303047       -0.0185207888       -0.0177655027
  H         0.0078231829        0.0142600481       -0.0127495680
  O        -0.0243892146        0.0173097536        0.0216815486
  H         0.0019294267       -0.0025777220       -0.0038112445
  H        -0.0032402790        0.0033380122        0.0170410456
  O        -0.0052501931        0.0006343767       -0.0106669482
  H         0.0133725658       -0.0084979968        0.0113856719
  H         0.0121813661        0.0030267298        0.0018054304
  O        -0.0187641803       -0.0132552193        0.0149594472
  H         0.0086835875        0.0219359235       -0.0113310968
  H         0.0113976542       -0.0018876228        0.0165757460
  O         0.0064398430       -0.0189278225       -0.0039432273
  H        -0.0022998270       -0.0056007117       -0.0002594133
  H        -0.0013370760        0.0112135472       -0.0057952009
  O        -0.0023956904       -0.0028914507       -0.0121789936
  H         0.0048238765       -0.0053274679       -0.0079698745
  H        -0.0002007154        0.0015966845        0.0184021432
  O        -0.0036906808       -0.0094425107        0.0375866900
  H        -0.0068006968        0.0042323404       -0.0172290494
  H         0.0071027540       -0.0020008318       -0.0130887112
  O        -0.0067756149       -0.0078733778        0.0175660555
  H         0.0101638080        0.0003936285       -0.0133746558
  H         0.0000748816       -0.0012648769       -0.0087853786
  O        -0.0026597245        0.0134928604       -0.0037652345
  H         0.0217225646        0.0001671708       -0.0065437073
  H         0.0167466481       -0.0068451671       -0.0051960887
  O         0.0023720684       -0.0133766248       -0.0164974718
  H        -0.0022067941        0.0192870065        0.0080766717
  H        -0.0124851056        0.0012649178       -0.0022352316
  O        -0.0209698471       -0.0038582593        0.0250228682
  H         0.0134350795        0.0036043600       -0.0216671502
  H        -0.0097710047        0.0022897305       -0.0229698422
  O        -0.0217015316       -0.0179369915        0.0074540066
  H         0.0086482906        0.0214938912       -0.0107363672
  H         0.0059302714        0.0008397073        0.0031156094
  O        -0.0091245074       -0.0025072154       -0.0018472828
  H         0.0083005169        0.0141500455        0.0028434957
  H        -0.0026093774       -0.0069602129        0.0007852465
  O        -0.0116044134       -0.0344190220        0.0310114011
  H         0.0011748643        0.0168384098       -0.0165376694
  H         0.0013437346        0.0163670077       -0.0093387829
  O        -0.0293933044       -0.0164296531        0.0078342613
  H         0.0122368957       -0.0007713585        0.0034599704
  H         0.0136699268       -0.0187119199        0.0008793659
  O         0.0076303297        0.0058490729       -0.0163215703
  H        -0.0027973016       -0.0038166965        0.0077910445
  H         0.0163470834       -0.0190616567       -0.0089390098
  O        -0.0049131881        0.0221478475       -0.0036270766
  H         0.0018235555       -0.0073999592        0.0056494933
  H        -0.0062667975        0.0145290613       -0.0025524364
  O        -0.0280339677       -0.0205758274       -0.0195016897
  H         0.0206857797        0.0254295679        0.0148080407
  H        -0.0091281285        0.0071129906       -0.0117505067
  O        -0.0091340496        0.0168553375        0.0053120605
  H         0.0033216172       -0.0175060995       -0.0102366316
  H        -0.0058002055        0.0181725877        0.0098345589
  O        -0.0048640252        0.0032226264        0.0094563580
  H        -0.0083331301       -0.0014926503       -0.0009111821
  H        -0.0215547345        0.0032721101        0.0039154120
  O         0.0023647965        0.0142538229       -0.0024977431
  H        -0.0010910564       -0.0114357056        0.0097077322
  H        -0.0146554213        0.0044232825       -0.0073579025
  O        -0.0042205100       -0.0156057208       -0.0087906460
  H         0.0048218702        0.0046406186       -0.0094336301
  H        -0.0105652035        0.0017153711        0.0075014834
  O         0.0195350637        0.0208013713       -0.0205036201
  H        -0.0002356078       -0.0095664312        0.0133792571
  H        -0.0140457911       -0.0132653736       -0.0075492429
  O         0.0249653032       -0.0136692230       -0.0242821871
  H        -0.0219732405        0.0228666391        0.0340774142
  H         0.0008968273       -0.0152344693       -0.0082563505
  O         0.0097131944        0.0228111607        0.0009458015
  H        -0.0173787381       -0.0018452718        0.0008293259
  H         0.0026033606        0.0024921791       -0.0166548277
  O        -0.0202005507        0.0034192750        0.0015262153
  H         0.0105815298        0.0037223349       -0.0010573115
  H         0.0060265249       -0.0088184590       -0.0043838424
  O         0.0190572354        0.0249399461       -0.0403723871
  H        -0.0113254023       -0.0208841802        0.0166102298
  H        -0.0142756534       -0.0024878146        0.0044666078
  O        -0.0096104923        0.0204937909       -0.0112034374
  H         0.0052884367       -0.0102856095        0.0157952530
  H         0.0083853149       -0.0074637770        0.0124477512
  O         0.0281099180        0.0165406107        0.0184751832
  H        -0.0093077127       -0.0212121415        0.0004914371
  H        -0.0050618269        0.0007284478       -0.0217776430
     225
 i =        3, time =        0.000, E =     -1982.1019658499
  O        -0.0296854044       -0.0118407526       -0.0064040025
  H        -0.0173712976       -0.0081984554       -0.0075068923
  O         0.0038438759        0.0031643549       -0.0197769002
  H        -0.0080602024       -0.0333569709        0.0077367024
  O         0.0140265446        0.0062865185        0.0165637329
  H        -0.0008574242        0.0033739958       -0.0204357670
  O         0.0128400498        0.0112335287       -0.0069884159
  H        -0.0105381844        0.0046000279        0.0042341916