     225
 i =        1, time =        0.000, E =     -1981.8913603104
  O         4.9754720000        0.6726160000       11.0339510000
  H         4.1344120000       -0.8323760000       11.6259840000
  O         4.3305690000        6.6828800000        2.5818470000
  H         5.6435410000        5.5175160000        2.4533780000
  O         3.4490340000       11.7949830000       12.0014460000
  H         2.5866330000       12.0295020000       11.5440390000
  O         2.1087670000        0.1667150000        4.1094980000
  H         1.9873400000        0.6938780000        4.9338750000
  O         9.8044590000        2.6678300000        2.0327850000
  H        10.0083290000        3.2901010000        2.8387130000
  O         0.3947410000        1.1392640000       12.4017750000
  H         0.5976050000        1.9925390000       11.9914910000
  O         6.1323970000        4.6683070000        2.3085790000
  H         5.4134830000        3.9659160000        2.2450910000
  O         5.9913530000        5.2308640000        5.6307630000
  H         5.2596590000        4.8103890000        5.1408150000
  O        -1.5559170000        5.5245770000        2.1275660000
  H        -1.8032200000        5.0545370000        2.9217200000
  O         4.6607210000       10.7565150000        2.1303290000
  H         4.9389060000       11.0260270000        3.0692500000
  O         6.8986160000       -2.2342000000        9.4731370000
  H         7.3818300000       -2.9701670000        9.0377740000
  O        10.3717530000        4.1160150000        6.5474590000
  H         9.5910560000        3.7168100000        6.9955320000
  O         8.7780620000        7.9906310000        1.3637300000
  H         8.6393970000        8.8744700000        0.8891460000
  O        12.3608450000        5.2863780000       12.4560670000
  H        12.3367050000        5.3332040000       13.4306810000
  O        -0.0533910000       12.8138500000        8.9337090000
  H         0.7098360000       12.6440620000        8.3860820000
  O        -0.1476410000       12.0589000000        4.6239340000
  H         0.7918960000       12.3835050000        4.5618000000
  O        10.0822420000        2.3214110000       11.4598420000
  H         9.5248840000        1.8398950000       10.7619960000
  O         4.9544500000        8.8289880000        7.1773250000
  H         5.3250240000        8.3656710000        7.9270850000
  O         6.0818140000        4.3800300000       10.9411700000
  H         6.1173560000        4.8751470000       10.0534100000
  O         1.2419090000        7.0422670000        5.0213670000
  H         0.9835750000        6.3620120000        5.6633630000
  O         6.0985580000        9.4837860000       11.4597390000
  H         6.4643430000        9.9991440000       10.6064520000
  O         8.6262750000        8.5847430000        8.6746740000
  H         8.4264660000        7.6599030000        9.0010770000
  O         7.6896740000        5.9960530000        9.1196480000
  H         8.0087760000        5.0758280000        8.9505200000
  O         1.7558200000        1.6001770000        6.5937010000
  H         2.3960560000        1.2229340000        7.2249960000
  O         6.4534350000        1.7676780000        1.2182060000
  H         6.0582670000        0.8572760000        1.2240730000
  K         4.6059300000        2.2917050000        6.2035450000
  K        -2.7977460000        4.0505120000        9.5198910000
  K         3.7257380000        6.4436000000        6.1877780000
  K        -1.9688860000        7.7205260000        0.7255980000
  K         0.0066370000       10.3216130000       12.0791640000
  K        -0.5933870000        2.8784730000        5.3428570000
  K         8.4982850000        5.1977780000        1.1967120000
  K        -1.8823970000        0.1461050000       10.7612870000
  K         4.0291360000       10.9708680000        9.2706250000
  K        10.5189600000        8.5471330000        5.6902890000
  K         7.5424730000        9.6264830000        3.2955410000
  K         0.5138770000        8.8774440000        3.1427510000
  K         3.9822140000        9.2211850000        0.0457740000
  K         8.2953680000        6.1702390000        6.1843530000
  K         8.3962830000        0.6900430000       -0.2594690000
  K         4.2317210000        5.3538600000        0.2203630000
  K         7.2964740000        2.7716440000        3.9861070000
  K        11.6157480000       11.9092520000        6.6487470000
  K         1.8976060000        5.8587780000       11.1366540000
  K         1.9729970000        2.0568370000        9.7290650000
  K         3.5157870000        8.7795070000        4.1735640000
  K         2.5722100000        0.7074750000        0.5426070000
  K         1.2348850000        5.4365420000        2.4284270000
  K         7.2579710000        7.2079000000       11.5189070000
  K        -0.7822770000        2.7992200000        0.6846500000
  O         1.6404940000        4.1116120000        6.2189940000
  H         1.8443490000        3.0864230000        6.2039590000
  H         2.1978150000        4.6269550000        5.5129070000
  O         5.0192970000        5.6967390000        8.3608810000
  H         6.7992010000        5.8098070000        8.7232470000
  H         5.4233740000        5.3785690000        7.4482740000
  O        11.9717500000        8.0176480000       11.0793350000
  H        11.4467570000        8.7405670000       10.6056220000
  H        11.1902020000        7.3426570000       11.0596770000
  O        13.3397180000        9.1588810000        6.0345010000
  H        13.8746040000        8.3500370000        5.7614980000
  H        13.8293990000        9.4914590000        6.7151400000
  O         6.1894520000        7.6419390000        4.1617600000
  H         6.3896290000        6.7912960000        4.5797060000
  H         5.5474170000        7.4055010000        3.4255090000
  O         7.7515290000        1.5742430000       10.0974830000
  H         5.9100640000        1.0270640000       10.8806580000
  H         7.8081920000        0.8967850000        9.3830560000
  O         4.2562710000        7.4962500000       11.1866660000
  H         4.4901910000        7.0766240000       10.3207760000
  H         5.3149710000        8.9864470000       11.0589750000
  O         3.4573400000        3.3641900000       11.7271130000
  H         4.0314550000        2.5439930000       11.8394520000
  H         5.1306780000        4.1578210000       11.0887510000
  O        10.5738000000        0.9469060000        5.4316220000
  H         9.9938860000        1.3974440000        6.1477640000
  H         9.8997890000        0.2651510000        5.1536520000
  O        11.7122680000       -0.2192910000        2.4769860000
  H        11.6664900000       -0.7773180000        1.6791990000
  H        10.7009600000       -0.0505640000        2.8791250000
  O         0.9754290000       12.3629270000       11.2438930000
  H         0.6712140000       13.3717150000       11.7602840000
  H         0.5741470000       12.5012380000       10.2129670000
  O         8.5030760000        4.1216850000       11.9512140000
  H         9.2620440000        3.2714170000       11.6340780000
  H         7.6732040000        3.9870570000       11.4202500000
  O         7.9616950000        8.8594940000        6.3106420000
  H         8.4381310000        8.6499800000        7.6474200000
  H         7.0592860000        8.9743410000        6.2940790000
  O        -1.2516030000       10.2585290000        1.7283270000
  H        -0.5468760000       12.6536900000        3.8574550000
  H        -0.6354670000       10.8517810000        2.1030320000
  O         4.5873680000        1.1016370000        3.8550680000
  H         3.5892160000        0.8937810000        3.6742900000
  H         5.2331470000        0.3116180000        3.6580650000
  O        -0.1691630000        6.4952220000        9.1025910000
  H        -0.2837760000        7.1124360000        9.8492790000
  H         0.7324390000        6.6596420000        8.8438200000
  O         6.5219200000       12.3624960000        3.7629320000
  H         6.3315530000       11.9668200000        4.6059130000
  H         7.5315840000       12.6808650000        3.8213310000
  O        -0.3638800000        2.2801420000        8.0127530000
  H         0.5186730000        2.0008450000        7.6111180000
  H        -0.5272430000        1.3453480000        8.4479670000
  O         0.3126030000       10.1189360000        9.1325300000
  H         0.1692920000       11.1273130000        8.9330640000
  H         1.1860440000        9.8973800000        8.8487620000
  O         9.0720640000       11.2231460000        6.4130430000
  H         8.3666190000       11.7693870000        5.9785680000
  H         8.7354650000       10.2968140000        6.5144100000
  O         0.5971990000        1.8075360000        2.8044420000
  H        -0.0892350000        1.1238880000        2.7789180000
  H         1.2680310000        1.3392910000        3.3940390000
  O         5.9552440000       12.4061870000        0.7531040000
  H         5.4364450000       12.1806180000       -0.0076910000
  H         5.1609570000       11.3644260000        1.4593800000
  O         3.8502770000        0.4841340000        8.5158490000
  H         3.2551780000       -0.2714670000        8.2102010000
  H         4.5141410000        0.7310900000       10.1398570000
  O         8.4865760000       -1.2737690000       11.1202790000
  H         8.2510490000       -1.7840690000       11.9333860000
  H         7.8246710000       -1.6169740000       10.3166610000
  O         9.8721830000        6.2362260000       11.6210150000
  H         9.3301070000        5.3602350000       11.6570720000
  H        10.8512130000        5.8443370000       11.9747290000
  O         3.4276890000        4.3667280000        3.8245220000
  H         3.7104240000        3.6616230000        3.1206900000
  H         3.8760650000        5.2013790000        3.4736280000
  O         1.8164700000        3.6617230000        0.5612800000
  H         2.5405430000        3.2107660000        1.0949330000
  H         2.2765860000        3.6645710000       -0.3250760000
  O         7.8917370000       10.7959150000        0.5189990000
  H         7.2568910000       10.2368560000        0.0314400000
  H         7.0443260000       11.5242670000        0.7226810000
  O        10.9651180000        6.6939610000        7.2824840000
  H        11.7934600000        6.7200650000        7.7782710000
  H        10.9392830000        5.7473860000        6.9387990000
  O         6.2533490000        7.9884330000        0.8832440000
  H         7.2770060000        7.9299290000        1.2578790000
  H         5.6795370000        7.6546360000        1.6641580000
  O        10.8400950000       11.8245250000        0.0034580000
  H         9.9761040000       11.4013640000       -0.0409180000
  H        11.2235730000       11.2233750000        0.7759520000
  O         2.1969730000        7.6678180000        1.2304150000
  H         1.6097200000        7.7209130000        0.4265070000
  H         3.6655600000        7.2193050000        1.9774440000
  O        10.1038170000       10.3819280000        3.6203140000
  H        10.7793170000       10.2213650000        2.8943530000
  H         9.8719850000       11.3695600000        3.5910910000
  O         1.7864730000        8.5263430000       11.1063220000
  H         2.8486400000        8.1515630000       11.0065920000
  H         1.4980350000        8.8820510000       10.2679360000
  O         1.9641400000       11.8518820000        7.2636870000
  H         2.0716100000       11.1773740000        6.5678410000
  H         2.0812980000       12.6697460000        6.7650740000
  O         3.2564970000       11.0842250000        4.9619050000
  H         4.1014800000       11.2468310000        5.4294540000
  H         2.8419700000       11.9769000000        4.5536350000
  O         6.4917020000       -0.2261660000        7.8740930000
  H         6.6798140000       -1.0692370000        8.4754460000
  H         5.5332460000        0.0808900000        8.1453310000
  O        10.3850840000       10.0469320000       10.1512620000
  H         9.7194110000       10.6661370000       10.6638320000
  H         9.6955770000        9.7444910000        9.4773060000
  O        -0.2347310000        3.5701810000       10.6373770000
  H        -0.4105980000        4.1229600000       11.4753940000
  H         0.1719120000        4.1637220000        9.8775340000
  O         9.1404470000       -0.2238830000        3.1263350000
  H         8.8963830000       -0.6527980000        2.2873910000
  H         9.4888100000        1.7883440000        2.3706480000
  O         2.3906740000        5.2199370000        8.5744910000
  H         2.1192720000        4.7828010000        7.7438100000
  H         3.4584760000        5.4192650000        8.4846320000
  O        10.0102900000        7.0352710000        3.7541290000
  H         9.7115940000        7.7088220000        3.0549140000
  H        10.7111150000        6.6514880000        3.1305680000
  O         7.8632070000        1.6103770000        6.4492760000
  H         7.3163900000        0.7664330000        6.8476390000
  H         7.8755400000        2.3353560000        7.1923850000
  O         5.1186140000        2.9802920000        8.5343580000
  H         5.6315030000        2.7306240000        9.3341670000
  H         5.0148730000        3.9505340000        8.5804940000
  O         1.8339970000       11.2143690000        1.7662590000
  H         1.4422210000       11.8999250000        2.3649600000
  H         2.7074560000       11.3386910000        2.0732170000
  O         7.9699260000        3.5354980000        8.1663840000
  H         6.9901710000        3.5233630000        8.0374550000
  H         7.8441230000        2.3382940000        9.5415550000
  O         2.7736940000        8.4048340000        8.3596150000
  H         2.8819330000        7.5665370000        8.7844270000
  H         3.6603640000        8.5529610000        7.7664950000
  O         9.6862420000        4.2454350000        4.2084360000
  H         9.7488380000        5.2692510000        4.0333420000
  H        10.0415230000        4.0764110000        5.4551820000
  O         4.1448170000        2.8056950000        1.9814970000
  H         5.6484790000        2.2925520000        1.2258610000
  H         4.5240430000        2.0942400000        2.6008600000
  O         5.6545360000       11.0410140000        6.0820200000
  H         5.4291250000       10.2641080000        6.6990470000
  H         5.8889410000       11.8574160000        6.6142780000
     225
 i =        2, time =        0.000, E =     -1982.0898076698
  O         4.8070200000        0.0167630000       10.3916980000
  H         3.3296820000       -0.8563510000       11.3765280000
  O         2.8680710000        7.1496500000        1.8902060000
  H         5.3683940000        5.3000010000        1.6881930000
  O         2.5440130000       11.7765840000       11.4084210000
  H         1.6173020000       12.1513420000       11.0745360000
  O         2.7661790000        0.8409770000        3.6067710000
  H         2.6002510000        1.8092740000        3.9189970000
  O        10.1481450000        2.0895140000        2.5179260000
  H        10.3155220000        2.8737560000        3.2043200000
  O         0.0944650000        0.3055940000       13.1217970000
  H         0.4392180000        1.1191980000       12.6329030000
  O         6.7929160000        4.9473840000        4.6818400000
  H         5.9154750000        4.8545060000        4.1773130000
  O         5.5315140000        5.1398090000        6.8057590000
  H         6.1370340000        5.1105160000        5.9227410000
  O        -2.2229190000        7.1538320000        2.5302480000
  H        -1.4154090000        6.8936650000        2.9236720000
  O         4.8310720000       11.0012740000        2.0464510000
  H         5.1637250000       11.5364280000        2.8057280000
  O         6.6238110000       -2.8486340000        8.4521600000
  H         7.1339870000       -3.4867900000        7.9500770000
  O        10.3389990000        3.6172500000        6.6969540000
  H         9.5867890000        3.0079330000        6.8323120000
  O         7.3679890000        7.7130870000        0.0160340000
  H         7.0687560000        8.5417320000        0.4757410000
  O        11.9862600000        5.1673700000       13.6873050000
  H        11.7533410000        5.9787810000       14.2603440000
  O        -0.4004470000       14.2315440000        8.7091800000
  H         0.5131490000       14.0390890000        8.2610690000
  O         0.0605750000       10.4637550000        4.8956770000
  H         0.5416040000        9.5460080000        5.0686920000
  O         9.5232670000        2.3804770000       12.0216460000
  H         8.6946120000        2.0420280000       11.5768490000
  O         4.0515370000        8.5559450000        7.5362110000
  H         4.7293230000        8.1721700000        8.1596450000
  O         6.7802660000        4.3353330000       11.8588640000
  H         7.3959330000        4.6543780000       11.1579040000
  O         0.1519460000        6.0742890000        4.2263480000
  H        -0.0439260000        5.3861340000        4.8838350000
  O         6.5046360000       10.8241650000       11.9092760000
  H         6.9560150000       11.2577220000       11.1460550000
  O         9.9229310000        7.8115320000        8.2047770000
  H        10.0823380000        7.3887370000        9.1156230000
  O         7.6889050000        5.7979600000        9.6125560000
  H         7.3619260000        4.9154910000        9.2121790000
  O         2.2017520000        3.0934260000        6.9618180000
  H         1.2376520000        3.2922490000        7.1408470000
  O         6.9566830000        3.0158780000        0.9998320000
  H         5.9880810000        3.0995640000        1.0994770000
  K         5.0311970000        2.6636670000        6.0079670000
  K        -3.2306880000        4.4019600000        9.6223710000
  K         3.0188370000        5.6767770000        6.3585600000
  K        -3.1804200000        8.6599250000        0.6950710000
  K         0.0001430000        9.6463340000       11.8521470000
  K        -0.6039010000        2.2057310000        5.0382640000
  K         8.2903190000        5.6392810000        2.4390930000
  K        -2.5008890000        0.3038180000       10.7491670000
  K         3.7551340000       10.9224410000        9.0488170000
  K        12.2295990000        7.7054730000        6.6581470000
  K         7.6307620000        9.6505390000        4.2367140000
  K         0.3450520000        9.4213500000        2.1120960000
  K         3.2925180000        9.7843460000       -0.1813430000
  K         8.6612950000        5.7741960000        6.3349330000
  K         8.1064540000        0.3874000000        0.7532900000
  K         4.8511460000        6.1734850000       -1.4177410000
  K         7.7467660000        2.4320280000        3.9953810000
  K        12.2374810000       11.8743050000        7.4729450000
  K         0.2163750000        6.0123120000       11.3212710000
  K         2.4496290000        1.8225570000        9.7846900000
  K         3.5698520000        9.2387220000        4.4254490000
  K         2.6478290000        0.7842730000        0.6724550000
  K         1.2409010000        4.8442670000        1.7664320000
  K         7.6891540000        8.4385520000       10.5224870000
  K        -1.5836380000        2.3965500000        0.4409570000
  O         2.0077720000        3.1736160000        4.4616630000
  H         2.2645660000        3.1126860000        5.4786190000
  H         2.5854410000        3.9519490000        4.1572260000
  O         5.8447150000        7.3741720000        9.0105490000
  H         6.9236600000        6.4375110000        9.3709060000
  H         5.9568610000        4.6087990000        7.5425460000
  O        10.2014350000        9.1343340000       11.2837450000
  H        10.6600800000        9.6594810000       10.5722200000
  H        10.6809110000        8.1735230000       11.1668090000
  O        14.4711480000        8.2349790000        5.2133390000
  H        14.0178060000        6.8162430000        4.5671690000
  H        14.8160030000        8.1232700000        6.1333740000
  O         5.8422380000        7.6751400000        3.8285630000
  H         5.9450040000        6.9419910000        4.4721630000
  H         5.7303540000        7.1204460000        2.9502430000
  O         7.5635600000        1.4037850000       10.7674090000
  H         5.6046550000        0.4358670000       10.7987520000
  H         7.8153280000        0.4565200000       10.3390080000
  O         4.6961920000        8.9981330000       11.0208730000
  H         5.2676330000        8.7444040000       10.3021670000
  H         5.7328970000       10.1541380000       11.5209910000
  O         4.6238640000        2.9922310000       11.0869410000
  H         4.7595390000        2.0452230000       11.2244130000
  H         6.0738680000        3.7450640000       11.4758350000
  O        10.1415160000       -0.2615280000        5.8726270000
  H         9.4009710000       -0.1755790000        6.4870380000
  H         9.7857930000       -0.3867910000        4.9060100000
  O        12.4259160000       -0.5573850000        3.7407470000
  H        12.6639190000       -1.3901920000        4.2230120000
  H        11.4639940000       -0.5153600000        3.6292210000
  O         0.3022810000       12.1593310000       10.7556880000
  H         0.1994780000       12.9097800000       12.3411200000
  H         0.0124580000       12.9848180000       10.2614650000
  O         9.6668170000        4.9407180000       12.3829180000
  H         9.3746150000        3.3778170000       12.2904140000
  H         8.8137040000        5.2668610000       12.6651600000
  O         7.2992350000        8.2796690000        6.7976320000
  H         8.1205860000        8.2343100000        7.2460950000
  H         6.6408490000        7.9739800000        7.5550770000
  O        -1.4150160000       11.0708200000        0.7393590000
  H         0.8447820000       11.0978230000        4.9504770000
  H        -0.8511810000       11.8899590000        0.9133620000
  O         5.3573620000        1.1893390000        3.4102610000
  H         4.3624210000        0.9997450000        3.6397860000
  H         5.7921960000        0.2803120000        3.6182270000
  O        -0.5216340000        8.4832470000        9.5869430000
  H        -1.0186170000        7.6600050000        9.7871480000
  H         0.3471070000        8.1443460000        9.1571800000
  O         7.1929500000       12.5433750000        4.1589600000
  H         7.3347020000       12.5337320000        5.1611370000
  H         8.1291800000       12.6162270000        3.8207130000
  O        -0.6009860000        3.4640000000        9.9130300000
  H         0.1766670000        3.9963910000        9.5002000000
  H        -0.3353170000        1.9457350000        9.1251210000
  O         1.2779820000       10.5405090000        8.6622270000
  H         0.8283930000       10.9088410000        9.4803010000
  H         1.0222960000        9.5709150000        8.6366390000
  O        10.0313230000       10.0456820000        5.8695270000
  H         9.9952130000       10.9328770000        5.5110210000
  H         9.8754930000       10.4254040000        7.0106980000
  O         0.4675510000        1.9488570000        2.1423090000
  H         0.1834460000        1.0112290000        2.1916670000
  H         1.3146740000        1.9100220000        2.5875940000
  O         5.3123120000       12.9317370000        0.1581860000
  H         5.6599600000       12.4271910000       -0.5792470000
  H         5.0962770000       12.1831950000        0.8754280000
  O         4.7134110000        0.6926920000        7.7588920000
  H         3.8395810000        0.3624180000        7.4387710000
  H         4.9411180000        0.1880820000        9.3858620000
  O         7.9194020000       -0.9677360000        9.8714770000
  H         8.5804380000       -1.4075880000       10.4047530000
  H         7.1375470000       -2.1611230000        8.9587750000
  O        11.0574990000        6.8206120000       10.6976970000
  H        10.5690480000        6.1429900000       11.2998720000
  H        11.0735070000        5.1254710000       13.1094970000
  O         3.7830620000        4.9832330000        3.9779560000
  H         4.1985640000        4.0030410000        2.9859890000
  H         3.6793600000        5.7468090000        3.3994460000
  O         3.1313900000        3.9794240000       -0.2065550000
  H         3.6311930000        3.8279680000        0.6431530000
  H         3.6798420000        3.5756760000       -1.0295260000
  O         7.2265150000       10.2394610000        1.1525560000
  H         7.2995570000       10.6940850000        0.3037650000
  H         6.3126150000       10.5095990000        1.5698220000
  O        12.7562910000        5.0134520000        6.8757790000
  H        13.2990930000        4.9977200000        7.7617110000
  H        11.9226860000        4.5433960000        7.1339910000
  O         5.6179750000        6.2353090000        1.5616170000
  H         6.6290000000        7.1006770000        0.4520740000
  H         3.7629280000        7.0067850000        1.5357960000
  O         9.7843220000       11.7343740000       -0.3889050000
  H         9.7012950000       10.8826600000       -0.9094850000
  H        10.8693660000       11.4849220000        0.1669020000
  O         0.9571790000        7.6695210000        0.1790930000
  H         0.2622800000        7.3605420000        0.8392510000
  H         2.2047270000        7.3707760000        1.1898190000
  O        10.8934430000       10.0520750000        3.0687450000
  H        11.2539810000       10.4875120000        2.2763190000
  H        11.1742870000       10.4961090000        3.8789360000
  O         2.4929620000        7.6038460000       10.7562460000
  H         3.3957940000        8.0106810000       10.7920560000
  H         2.2681790000        7.7231260000        9.7741940000
  O         1.8911760000       13.7998940000        7.1674030000
  H         2.1430620000       14.7504110000        7.0688930000
  H         2.0238140000       13.0220020000        6.3663800000
  O         2.2232250000       12.3754320000        5.2136120000
  H         3.0413280000       11.8814110000        5.3674050000
  H         2.3357440000       13.5048390000        4.3602140000
  O         6.6953920000       -0.4518030000        6.7755840000
  H         7.1640520000       -1.0407880000        7.3830290000
  H         5.5211090000        0.2571150000        7.3482760000
  O        10.0177010000       10.4442650000        8.3188620000
  H         9.3274930000       11.1035070000        8.5649330000
  H        10.1309280000        8.7624910000        8.3806940000
  O         0.9242880000        2.3994500000       11.8646400000
  H         1.5175650000        2.8444410000       12.4501750000
  H        -0.0852230000        3.0935030000       10.7669010000
  O         9.7538070000       -0.4042520000        3.3474480000
  H         9.7886090000       -1.2238250000        2.8562850000
  H        10.2207840000        1.1042170000        2.7988660000
  O         1.2822900000        4.9017480000        8.8245520000
  H         1.9655620000        4.3685920000        8.3582100000
  H         3.2111710000        5.0522810000        9.4824240000
  O        10.1174490000        7.4190050000        4.9232790000
  H        10.1212010000        8.4224700000        4.9018240000
  H        10.6490260000        7.2084000000        4.0763580000
  O         8.1182720000        2.0611580000        6.9105800000
  H         7.7196570000        1.1600500000        7.1138360000
  H         7.7499700000        2.5908450000        7.7032550000
  O         4.1304710000        4.7828310000        9.4398720000
  H         4.2650010000        3.9168930000        9.8907170000
  H         5.2851750000        6.5946700000        8.9798740000
  O         2.1398500000       11.4425930000        2.1048510000
  H         1.7884510000       11.9358950000        2.8207010000
  H         3.1372220000       11.5643190000        2.2568390000
  O         7.1602340000        3.1963660000        8.8949020000
  H         6.2655830000        3.1165740000        9.2314200000
  H         7.4092820000        2.1136460000       10.0926490000
  O         1.6800110000        7.6334490000        8.2567620000
  H         1.4103320000        6.6823060000        8.4075990000
  H         3.1443160000        8.3307000000        7.9118670000
  O        10.2849550000        3.9982220000        4.3262690000
  H        10.7367470000        4.7820410000        3.8638430000
  H        10.4719960000        3.8235900000        5.6445360000
  O         4.3372070000        3.3287450000        2.1353680000
  H         7.0483050000        3.4989240000        0.0927680000
  H         4.5878960000        2.4203460000        2.3456550000
  O         4.6655990000       11.1794120000        5.9750420000
  H         4.9362320000       10.5350360000        6.6556330000
  H         5.3968040000       11.8562500000        6.3284290000
     225
 i =        3, time =        0.000, E =     -1982.1019658499
  O         4.2168460000        0.3802270000       10.7273990000
  H         3.5762570000       -0.9509290000       11.8553850000
  O         2.2743840000        7.2684620000        1.4604720000
  H         4.8493940000        6.1717100000        1.4852860000
  O         2.8970040000       11.5466710000       12.0306100000
  H         2.5462610000       11.3252420000       11.1591820000
  O         3.2844420000        0.6171840000        3.3734850000
  H         2.8920290000        1.5494060000        3.4045340000