288
REF_TotEnergy=-47944.69633876 cutoff=-1.00000000 nneightol=1.20000000 pbc="T T T" Lattice=" 14.2067 0.0 0.0 0.0 14.2067 0.0 0.0 0.0 14.2067, " Properties=species:S:1:pos:R:3:REF_Force:R:3:Z:I:1
O  84.743419   39.455917   -8.422136   -0.308244   0.650793   -0.970981  8  
H  84.009620   40.093202   -8.142973   0.827456   -0.560007   -0.440839  1  
O  108.070821   49.254333   -4.380138   -1.129336   -1.110879   0.207612  8  
H  96.455770   28.473933   -19.415035   -0.264406   0.079624   0.143246  1  
O  92.673374   40.688288   5.307113   0.604681   -2.064089   -0.004459  8  
H  98.951607   47.520086   -9.020569   0.090364   -0.070270   0.183257  1  
O  85.017189   31.033474   -17.620887   -0.699236   0.112273   3.094400  8  
H  85.648698   30.200712   -17.531482   -0.587641   0.726474   -0.073900  1  
K  96.061933   35.331116   -20.234497   -0.301465   0.119468   0.108208  19  
K  95.848555   27.662123   -10.787376   -0.546309   0.247001   -0.051875  19  
K  90.702514   35.072725   -15.521976   0.226389   0.294842   0.150632  19  
K  101.863697   35.676232   -4.567181   -0.018560   0.022237   -0.125463  19  
O  94.943779   43.210678   -18.758648   -0.466962   0.800797   -1.435452  8  
H  90.588868   31.991111   -18.616008   -0.120987   -0.042464   0.067465  1  
H  83.791212   40.548899   -5.711456   0.674475   -0.619517   0.462268  1  
O  90.185146   48.351036   -21.891311   -0.068114   0.132244   0.426013  8  
H  90.566686   48.966361   -22.587197   0.162529   -0.567852   0.171789  1  
H  90.460410   47.414794   -22.135743   -0.174315   0.553403   -0.316140  1  
O  87.114680   38.429262   -18.520108   0.239782   1.317388   -0.107251  8  
H  87.596479   39.264427   -18.233494   -0.548124   -1.095111   -0.032735  1  
H  86.909520   38.673387   -19.476127   0.092960   -0.517535   0.044786  1  
O  94.012079   30.834972   -15.036445   -0.106775   -0.723563   -0.427019  8  
H  94.654123   31.221358   -14.382675   -0.186279   -0.231454   0.509439  1  
H  93.491541   44.015490   -12.363212   0.184596   -0.052201   1.276560  1  
O  100.200363   46.504122   -23.844818   -0.175873   -0.028497   0.636068  8  
H  100.532076   47.103917   -24.516853   0.331249   0.435848   -0.694852  1  
H  94.283527   43.123548   -22.086754   -0.947804   -0.626906   0.805024  1  
O  98.703143   35.104854   -3.419951   1.493646   0.618013   0.635639  8  
H  102.223621   44.003614   -6.181651   0.570744   1.278627   -0.469811  1  
H  99.346074   35.339972   -2.630758   -1.046578   -0.524378   -0.764872  1  
O  101.912220   40.144251   -16.229911   -1.909964   -1.363596   0.543388  8  
H  101.594046   40.552723   -15.391483   0.125286   0.000102   -0.090789  1  
H  102.713333   40.523567   -16.537881   2.132027   1.468456   -0.446385  1  
O  89.471432   42.200158   -12.196462   -0.317491   0.729202   -0.107723  8  
H  86.589054   44.542425   -13.585279   -1.202456   1.667207   -1.392708  1  
H  88.987330   43.003141   -12.488782   -0.238875   -0.252189   -0.135387  1  
O  96.524564   35.826794   3.855570   -0.433863   0.031861   -0.509934  8  
H  95.654870   35.261533   3.827808   0.825842   0.430779   -0.149430  1  
H  96.050802   26.042770   6.530347   -0.861669   -1.142791   0.246118  1  
O  91.149482   36.600693   1.451060   0.875684   -0.235397   -0.078453  8  
H  91.250267   35.677047   1.844734   -0.207903   0.091172   0.077434  1  
H  90.192053   36.794497   1.486849   -0.432505   0.109631   0.055011  1  
O  87.608910   50.010391   -22.708871   -1.360402   0.543145   0.294465  8  
H  88.122425   49.219955   -22.528611   0.920915   -0.853471   0.153478  1  
H  97.977067   42.422226   -16.615075   -0.561801   0.582404   -0.016671  1  
O  90.695087   43.362769   -7.406259   -0.380643   1.235596   1.265764  8  
H  100.388225   47.214318   -5.434983   -0.217101   0.224709   0.130146  1  
H  89.963771   43.989889   -7.035503   0.500949   -1.305712   -0.455583  1  
O  98.102877   42.966996   2.550924   -0.543323   1.400330   -0.723438  8  
H  98.107685   43.660371   1.781418   0.139324   -1.117534   0.572475  1  
H  92.162008   39.191374   -4.759941   -0.869566   -0.197398   0.444577  1  
O  102.312663   42.341145   -8.730384   -0.035816   0.001725   -1.126269  8  
H  103.797815   40.015410   -6.179128   -0.475626   -0.264445   0.044964  1  
H  101.627677   42.392918   -8.041043   -0.208004   -0.114386   0.633257  1  
O  90.048681   31.735343   3.042829   -0.435982   -1.963114   -0.456593  8  
H  87.634382   32.964585   -0.193359   0.193917   -0.742610   -0.482695  1  
H  89.168287   31.252553   3.326230   1.120001   0.683119   -0.482095  1  
O  98.131276   30.171225   -14.088293   -0.268316   -0.105697   0.018254  8  
H  104.465077   27.962111   -16.556690   -0.168820   -0.340082   -0.262642  1  
H  97.379059   35.153473   -14.263579   -1.073186   -0.593318   -0.297066  1  
O  91.338518   20.489133   -19.260471   -0.438478   -2.899751   -1.503265  8  
H  92.789701   40.187612   -3.827656   -0.480194   -1.118537   0.485157  1  
H  91.151255   21.347509   -18.953606   -0.732363   2.537771   0.675003  1  
O  88.768555   33.908649   -16.832100   -0.003870   -0.802032   -1.089334  8  
H  86.586851   43.016369   -13.320857   -0.517784   -0.255339   -0.302370  1  
H  89.058919   33.265067   -17.560742   0.164543   0.517385   0.388265  1  
O  77.341371   35.592282   -9.592073   -0.305656   2.751520   0.636323  8  
H  77.014886   36.561047   -9.721825   0.256472   -1.936074   0.125532  1  
H  81.567428   38.544656   -7.068133   -0.278503   -0.409279   0.949818  1  
O  92.521913   37.086567   -30.788062   0.243574   0.438912   -0.585522  8  
H  86.159510   41.419388   -34.531249   -0.360211   -1.094882   0.222555  1  
H  92.299944   37.997052   -31.184003   0.167684   -0.803713   0.022480  1  
O  86.317554   40.871633   0.400595   1.048232   0.988380   0.465699  8  
H  83.333738   43.890142   -0.539178   0.637910   0.494342   0.463388  1  
H  87.184162   40.883415   0.889539   -0.736101   -0.114394   -0.256368  1  
O  89.250059   40.120005   -5.257190   0.286446   -0.125916   -0.918050  8  
H  87.518953   32.210309   -6.798320   -0.256365   0.621804   -0.135899  1  
H  84.787207   45.547702   -2.421739   0.665887   -1.078918   -2.893423  1  
O  93.504030   42.665810   -21.630898   3.130014   -0.127284   -0.121457  8  
H  92.759573   43.180912   -21.898457   -1.995297   1.032156   -0.328327  1  
H  102.104836   28.904410   -23.563778   0.382560   -0.194098   0.550539  1  
O  95.393000   45.036259   6.940333   1.032481   0.176595   0.601866  8  
H  89.538770   47.767953   1.274993   -1.055520   0.031517   -0.387070  1  
H  90.518883   45.329013   2.330614   -0.751667   1.234232   0.996985  1  
O  92.382818   38.674941   -20.610844   -1.517019   0.741307   -0.851383  8  
H  103.069678   40.605093   -11.762253   0.478579   0.506095   0.025279  1  
H  92.083456   39.479866   -21.138968   0.559458   -1.014533   0.640896  1  
O  85.386125   49.997763   -21.155019   0.568261   -0.411430   -0.386035  8  
H  84.892233   49.446696   -21.806292   -0.329469   -0.182027   0.393119  1  
H  93.309368   38.819684   -20.375416   1.306027   0.158532   -0.291847  1  
O  87.158210   46.634199   -15.138884   1.111850   0.188602   0.807881  8  
H  86.280097   47.003839   -15.109104   -1.207453   0.311806   -0.171232  1  
H  84.432431   36.835154   -18.527616   -0.654970   0.041873   -0.187441  1  
O  93.354002   36.097366   -21.704107   0.348765   -0.187687   -0.743601  8  
H  91.007842   44.037655   -14.006905   0.463268   1.028567   0.241163  1  
H  102.301851   33.329048   -16.402921   -0.269566   0.262730   0.449507  1  
O  102.714024   22.872812   -12.934423   -0.028653   1.164126   0.631205  8  
H  102.600387   23.810578   -12.607015   0.182672   -0.067244   -0.686136  1  
H  102.235569   22.405727   -12.232282   -0.337030   -0.897378   -0.021744  1  
O  91.479722   28.293285   -10.256105   0.454574   1.967288   -1.413931  8  
H  92.174525   28.872973   -10.805188   -1.125211   -1.312240   1.343501  1  
H  90.005269   28.336287   -11.436254   0.590780   -0.473336   0.182216  1  
O  86.030770   35.859383   -1.211551   0.252252   -1.085051   0.804255  8  
H  85.397173   35.435182   -0.221226   0.076492   0.232537   0.343072  1  
H  86.949522   35.539142   -1.023414   -0.479582   0.453842   -0.375367  1  
O  98.369829   30.540449   -9.553908   -0.620928   -0.665069   -0.151255  8  
H  110.234062   31.418390   -6.720121   -0.682806   -0.666753   -0.846667  1  
H  98.330716   29.716655   -10.131577   0.695109   0.925656   0.304847  1  
O  85.280967   38.024277   -16.523141   -0.958291   0.122963   0.590513  8  
H  85.665459   42.830725   -20.809549   0.146226   0.101428   0.061221  1  
H  85.750623   37.220003   -16.149040   -0.009796   0.147890   0.020424  1  
O  78.939715   28.281640   -15.651837   -2.153749   0.003740   -0.681723  8  
H  86.181548   34.953078   -12.162103   -0.135089   -0.099896   -0.573084  1  
H  95.185056   43.987683   -18.114439   -0.378424   -0.285650   -0.921927  1  
O  86.464949   42.283581   -20.597512   0.347912   1.293141   -0.270083  8  
H  78.135116   44.603815   -17.505547   0.150170   0.433254   -0.453227  1  
H  80.483892   47.474860   -10.643887   -0.019455   0.508318   -0.007430  1  
O  93.300316   38.183929   -26.399582   0.016482   0.351913   -0.218617  8  
H  92.402028   37.749747   -26.367123   -0.186058   -0.180521   -0.227772  1  
H  93.630911   37.902567   -27.295709   0.273456   -0.413018   0.172058  1  
O  96.493819   40.922791   -8.195244   0.359633   0.866666   0.088244  8  
H  96.583811   41.563743   -7.444758   0.444815   0.708160   0.069178  1  
H  90.812632   34.560617   -20.124176   0.644210   0.171288   0.462356  1  
O  84.031148   33.889231   -8.567948   0.507372   -0.028304   -0.095818  8  
H  83.600263   34.389917   -9.285291   -0.426004   0.162312   -0.294241  1  
H  86.886009   35.186146   -10.795581   0.449028   -0.013721   0.548112  1  
O  103.684605   52.118329   -9.690872   -0.617242   -0.793713   -0.906902  8  
H  101.550592   44.286194   -11.156940   0.535699   1.281442   2.294017  1  
H  102.888554   51.624436   -9.400449   0.129442   -0.571655   -0.028991  1  
O  101.143062   32.958377   -7.134995   1.072818   -0.567823   1.888579  8  
H  99.200784   34.416635   -3.966621   -0.157109   0.058279   0.469064  1  
H  99.009423   50.441891   -20.495575   -0.329853   0.412050   -0.009354  1  
O  100.066079   47.353896   -18.707395   0.563539   0.376341   -1.212541  8  
H  99.891120   46.440712   -18.326727   -0.242297   -0.089095   0.344247  1  
H  92.831845   36.891859   -21.505847   -0.131944   0.282771   0.398259  1  
O  88.842001   30.299815   -16.530319   -0.193519   0.764165   0.718016  8  
H  89.519866   29.743474   -15.923971   -0.136324   -0.077883   -0.050239  1  
H  88.524304   31.046878   -15.938148   0.077330   -0.783760   -0.567348  1  
O  102.959595   51.379821   -1.471014   0.441998   -0.814989   -0.521631  8  
H  84.138889   38.125908   -5.218993   0.163451   0.754660   -0.098443  1  
H  102.903796   51.461534   -0.510879   -0.175130   -0.288889   0.892277  1  
O  90.504851   43.117216   -0.991754   -0.241816   -0.814403   0.672673  8  
H  90.059902   42.461440   -0.375091   0.576800   0.669818   -0.693377  1  
H  92.093069   42.723748   -1.366445   1.484260   -0.289930   0.474052  1  
O  91.356116   30.579503   -13.356247   -0.167900   -0.695013   -0.070643  8  
H  101.288580   31.203788   -9.863909   -0.085317   -0.518735   -0.643511  1  
H  100.223538   25.719472   -13.652994   0.197135   -0.065525   -0.472948  1  
O  103.814841   46.104507   -18.510289   0.375823   -0.566081   0.125949  8  
H  100.745334   41.141447   -24.212195   0.741862   0.357343   0.224680  1  
H  103.742620   45.349878   -17.828562   -0.216791   0.628655   0.031628  1  
O  83.342883   51.640362   1.390458   0.195325   -0.001496   0.890306  8  
H  83.072467   52.315166   2.049110   -0.088806   0.163523   0.690987  1  
H  83.183429   52.130950   0.557759   -0.363286   -0.031569   -1.263388  1  
O  104.261829   27.272070   -17.271097   0.639094   0.108380   0.482888  8  
H  107.166887   22.362647   -17.314847   -0.127210   0.315025   0.269709  1  
H  105.051710   26.667822   -17.254047   -0.616054   0.014489   -0.290890  1  
O  99.075379   35.085705   0.886620   -0.373171   0.763405   0.200940  8  
H  100.580988   25.840296   -11.156433   -0.673526   1.667847   1.319897  1  
H  93.176063   41.260686   5.950469   -0.068622   0.232243   0.024586  1  
O  81.391733   30.985780   -17.243052   0.511145   0.595347   -0.312538  8  
H  81.744187   31.851629   -17.615456   -0.188077   -0.367382   0.569758  1  
H  80.732281   31.195300   -16.525894   -0.031178   -0.046667   0.186880  1  
O  88.712091   48.015116   -13.454903   0.203007   0.760764   1.180276  8  
H  82.419849   50.343336   -11.296511   0.023398   -0.290952   0.882473  1  
H  88.112165   48.511911   -12.764183   1.176903   -0.896499   -0.769718  1  
O  91.035614   31.695522   -8.609012   -1.007817   -1.741138   0.163620  8  
H  90.647778   31.545048   -9.570860   0.709270   0.491385   0.995127  1  
H  90.713869   30.866694   -8.074699   0.792297   1.582990   -1.306888  1  
O  91.615602   34.205436   -11.693671   -0.225902   -0.346384   0.222786  8  
H  86.008657   38.746186   -7.506019   0.970290   -0.287563   0.155358  1  
H  91.647676   35.188941   -10.516676   -0.190953   -0.540716   -0.302599  1  
O  96.873262   51.656673   -8.056867   -2.037119   -0.263447   0.587183  8  
H  96.718270   51.176681   -8.901566   0.217116   -0.206196   -0.549432  1  
H  97.787994   51.879712   -7.965756   1.646450   0.425864   -0.221530  1  
O  94.444084   37.043465   -14.577679   -0.467448   0.312969   -0.098080  8  
H  95.296716   37.516515   -14.691094   0.077273   -0.002057   -0.352521  1  
H  95.886873   18.213386   -12.765885   -1.672494   -0.296772   -0.133099  1  
O  88.445223   39.721331   -11.786623   -1.240232   -0.416434   -0.790622  8  
H  88.781190   39.156368   -11.082549   0.719830   -0.292655   1.086826  1  
H  92.376531   48.060840   -12.893272   -0.265636   0.072019   0.843491  1  
O  101.049745   38.560745   -6.961673   -0.845177   0.971260   0.660955  8  
H  101.733008   38.020575   -7.360069   -0.048414   -0.518841   -0.770734  1  
H  108.223270   48.616347   -3.632674   0.269664   0.494708   -0.106974  1  
O  82.957549   28.107126   -5.788896   0.810837   -0.154463   -0.455026  8  
H  81.340519   30.961898   -8.966237   -0.106870   0.106022   -1.532925  1  
H  94.486501   45.360590   -7.098546   -0.233391   0.697570   0.285536  1  
O  87.049479   48.996208   -11.670848   -0.799146   0.395368   0.253046  8  
H  90.477962   43.201725   -22.538730   -0.363700   -0.390501   -0.786104  1  
H  78.738039   50.005570   -8.357992   -0.002092   -0.125030   0.289309  1  
O  90.065933   37.296790   -4.853250   0.041415   0.348682   -0.353715  8  
H  90.521222   37.627933   -5.672599   -0.332828   -0.080574   0.801736  1  
H  89.702288   38.118186   -4.420783   0.405296   -0.388579   -0.562227  1  
O  89.995490   25.744864   -8.126142   0.161149   2.493224   -0.426983  8  
H  89.424230   26.617548   -8.289032   1.104404   -1.722779   0.188561  1  
H  92.949929   34.679523   -4.691282   1.045127   0.960735   -0.003803  1  
O  95.443322   30.984300   -10.007506   1.317269   -0.101284   1.146916  8  
H  91.101819   33.498247   -11.229644   0.200569   0.274883   -0.419745  1  
H  96.398846   30.968877   -10.338901   -1.085948   0.182734   0.630258  1  
O  100.136937   38.395853   -13.547528   0.062979   -1.042087   -0.100682  8  
H  100.198933   37.625203   -14.180987   0.269812   0.621939   0.231473  1  
H  99.305105   38.206422   -13.082530   -0.514618   -0.349730   0.299151  1  
O  101.210154   43.862226   -13.101815   1.716251   -1.490036   1.841519  8  
H  103.979089   40.884559   -4.969534   -0.002870   0.331734   0.759834  1  
H  97.801142   28.856226   -5.998569   -0.694987   -0.427970   -0.238486  1  
O  83.952297   37.170932   -19.333352   0.039491   -0.910710   0.214968  8  
H  84.321910   50.064784   -12.962039   0.838974   -0.801853   -0.440708  1  
H  91.948901   41.681926   -9.974085   0.175690   0.137127   -0.075463  1  
O  108.688705   40.530919   -18.151413   0.392508   0.577159   0.005190  8  
H  108.838444   41.405061   -18.613836   0.020874   -0.375430   0.582890  1  
H  109.211070   40.584147   -17.286780   -0.484206   -0.056834   -0.444803  1  
O  80.302274   48.451610   -10.628645   -0.955920   -0.834824   -0.119552  8  
H  86.842198   32.668495   -8.048396   -0.868944   -0.041763   -1.498105  1  
H  79.359970   48.537618   -10.968609   0.465260   -0.137770   0.232668  1  
O  96.409632   48.020489   -17.376081   -0.653835   -0.680915   -0.584945  8  
H  97.206525   48.589081   -17.440853   0.791815   0.176671   -0.038632  1  
H  107.978810   54.297618   -12.926320   -0.139443   -0.089140   0.078200  1  
O  79.486442   43.700054   2.775344   -0.583645   -0.453542   -1.444125  8  
H  79.992040   44.404976   3.234753   0.342147   0.621327   0.085979  1  
H  85.722475   38.247252   -3.145787   0.801422   0.293784   -0.674316  1  
O  94.338032   55.065216   -13.166993   0.612812   -0.297852   0.147904  8  
H  96.643072   53.421108   -15.441845   0.454586   0.417867   -0.490797  1  
H  94.003457   44.034574   -15.005500   -0.014986   0.920210   -0.202173  1  
O  97.184171   42.874599   -16.179901   0.080297   -0.315777   0.262329  8  
H  86.812362   49.884056   -22.085213   0.693857   0.586585   -0.602181  1  
H  87.061690   57.369013   -18.402633   -0.283214   -0.646053   -1.427307  1  
O  92.006290   39.518513   -3.828302   1.244921   1.009467   -0.194932  8  
H  93.864068   37.258012   -15.383865   0.314339   -0.373473   0.472943  1  
H  93.247363   39.877898   -9.137256   -0.413405   0.879556   -0.000864  1  
O  98.663515   39.830294   -5.453813   -0.556606   1.117374   0.081690  8  
H  98.964341   40.161129   -4.555896   -0.125872   -0.046377   -0.194363  1  
H  107.611296   34.859328   -13.583884   -0.206665   -1.647193   -0.156325  1  
O  82.844904   38.335445   -1.056693   -1.795270   -0.479277   1.641425  8  
H  84.363123   42.194861   2.212907   0.691887   -0.423393   -0.204472  1  
H  83.671119   38.150292   -1.498324   1.370369   0.186177   -1.333204  1  
O  98.726396   30.007033   -6.995214   0.373293   -0.727331   -0.027092  8  
H  98.617306   30.354797   -7.931952   -0.256249   -0.570281   -0.418197  1  
H  99.192609   31.126173   -9.715004   -0.159081   -0.061532   -0.419668  1  
O  98.292325   46.721563   -12.372562   0.015288   0.124335   0.376065  8  
H  97.803236   45.284584   -13.887366   0.035905   -0.248491   -0.050189  1  
H  90.934134   25.991065   -8.471439   -1.273683   -0.077376   0.410039  1  
O  111.668073   32.570853   -6.344423   -0.799308   -0.549306   0.854729  8  
H  112.007531   33.001909   -7.153366   0.421107   0.462605   -0.530474  1  
H  112.201668   32.814993   -5.563447   0.284513   0.113524   -0.094664  1  
O  107.199942   32.047460   -6.442108   0.446651   0.238106   0.452214  8  
H  106.508076   31.757265   -7.041447   -0.736510   -0.751012   -0.926204  1  
H  107.008418   32.999527   -6.473727   0.375659   0.618759   0.271796  1  
O  94.943782   32.034700   -12.843956   2.479993   -0.654700   0.336806  8  
H  94.332446   32.744336   -13.111559   -0.329197   1.163413   -0.172837  1  
H  85.179114   39.839889   -9.283003   -0.565137   -0.136259   1.180766  1  
O  86.653243   57.500230   -17.545875   1.719245   0.654607   1.154074  8  
H  78.953085   42.030242   -16.534492   0.514268   0.265044   0.719216  1  
H  87.495452   57.975285   -17.128827   -0.898553   -0.546370   0.393161  1  
O  96.843411   39.419552   -10.908315   0.556906   -0.055569   -0.036855  8  
H  96.075447   39.055467   -10.408691   -0.319641   -0.267071   0.216674  1  
H  97.557273   39.498144   -10.235744   -0.140946   -0.228533   -0.068368  1  
O  93.121138   48.086671   -13.603701   0.743172   1.519455   -1.148501  8  
H  94.652117   57.795704   -19.671238   0.536753   -0.511343   1.875237  1  
H  98.657378   46.561194   -11.467521   -0.160909   -0.005745   -0.480364  1  
O  94.391785   38.608289   -9.833488   0.000174   0.885236   -0.871503  8  
H  94.032505   38.199567   -10.708064   0.013529   0.176899   0.625499  1  
H  94.356073   38.002626   -9.091881   -0.083678   -1.109570   0.395069  1  
O  95.721432   40.656509   -29.900818   -0.316698   1.199224   1.234381  8  
H  95.191594   40.727510   -29.031666   0.423286   -0.395527   -0.931262  1  
H  96.128113   41.595261   -29.970976   0.033926   -0.973284   -0.213586  1  
O  96.496058   48.970293   -14.562622   0.686053   -0.058658   0.091702  8  
H  96.819471   43.664523   -16.645335   0.461201   -0.183392   -0.500748  1  
H  95.825558   49.678743   -14.585373   0.050225   0.234583   0.092311  1  
O  93.167058   47.596068   -16.388789   -0.732534   -0.694097   2.548850  8  
H  92.891317   46.668557   -16.543780   0.024244   -0.025440   -1.068835  1  
H  93.022144   47.532016   -15.358515   0.898883   1.032292   -1.354794  1  
O  99.298583   26.762383   -17.134014   -0.234867   -0.903315   1.132261  8  
H  98.635330   30.792659   -20.666298   -0.075544   0.942026   0.723619  1  
H  100.231384   27.116633   -17.054416   -0.686999   -0.398264   0.101745  1  
O  100.060512   26.507613   -24.750427   0.313437   -1.909074   -1.598091  8  
H  102.700387   38.051812   -15.951185   -0.451949   1.142229   -0.649914  1  
H  99.225301   25.981249   -16.466790   0.521576   1.325157   -1.222594  1  
O  92.261403   45.455346   -18.004934   1.915400   -0.429968   -0.839704  8  
H  93.072778   45.514069   -18.660688   -2.060159   -0.265349   1.407411  1  
H  103.773556   52.791450   -8.998047   0.343866   1.010035   0.593027  1  
O  95.180957   38.942306   -20.559941   -0.286859   -0.056316   -1.922717  8  
H  96.166361   33.973829   -16.451708   -0.258250   0.058224   0.744485  1  
H  95.659507   38.995434   -19.736390   0.682480   0.124730   0.949955  1  
O  88.513254   44.869656   -6.378188   -0.438841   -1.714421   0.537457  8  
H  93.780551   41.475151   -13.657958   -0.695648   0.382030   -0.323836  1  
H  88.953258   45.137164   -5.509646   -0.195746   0.415926   -0.309869  1  
O  101.918155   44.645160   -10.222692   -0.508019   -1.002030   -2.242500  8  
H  98.560420   47.655362   1.599033   -0.107004   -0.047766   -0.192632  1  
H  92.125241   45.205163   -13.792800   -0.135717   -0.062039   -0.134328  1  
288
REF_TotEnergy=-47944.65793865 cutoff=-1.00000000 nneightol=1.20000000 pbc="T T T" Lattice=" 14.2067 0.0 0.0 0.0 14.2067 0.0 0.0 0.0 14.2067, " Properties=species:S:1:pos:R:3:REF_Force:R:3:Z:I:1
O  84.567983   39.635826   -8.990100   -1.631188   -0.439552   1.872956  8  
H  83.943704   40.184792   -8.405522   0.482072   -0.866710   -0.789635  1  
O  107.717667   49.402889   -4.464714   -0.633555   0.410128   0.259555  8  
H  96.535628   28.384071   -19.516248   -0.348397   0.005105   0.003142  1  
O  92.716867   40.665004   5.266884   0.873151   -0.607457   -0.195652  8  
H  98.857599   47.640803   -8.837324   0.171663   -0.273609   -0.274283  1  
O  85.066389   30.923565   -17.772799   -1.746551   -0.432754   1.707007  8  
H  85.678851   30.182674   -17.449583   -0.808050   0.542425   0.021865  1  
K  95.462353   35.018432   -20.372024   0.284407   -0.140357   0.140218  19  
K  95.876737   27.635596   -10.846272   -0.022504   0.003575   -0.233878  19  
K  91.015280   34.944900   -15.650888   -0.555355   0.212178   0.211141  19  
K  101.903208   35.650763   -4.858605   -0.004122   -0.276790   -0.199135  19  
O  94.857140   42.845966   -18.936086   -0.947595   0.981945   -1.399778  8  
H  90.330154   31.454131   -18.631351   -2.057151   1.368952   1.017742  1  
H  84.191646   40.821453   -5.639794   -1.009228   0.866783   -0.120250  1  
O  89.721381   48.757239   -21.727943   0.066958   0.310758   -0.016584  8  
H  90.288567   49.167879   -22.507553   -0.425348   -0.481270   0.560878  1  
H  89.548461   47.817472   -21.906725   -0.116391   -0.202791   -0.355244  1  
O  86.891143   38.150388   -18.562875   -0.001686   0.622456   -0.453139  8  
H  87.369286   38.939537   -18.198142   0.014541   -0.345581   0.368473  1  
H  86.717136   38.432774   -19.493689   0.087971   -0.203719   -0.216295  1  
O  93.856153   30.941159   -15.217585   0.745964   0.119449   0.918446  8  
H  94.479144   31.134127   -14.435562   -0.392073   -0.119607   -0.659946  1  
H  93.227047   44.435095   -12.040577   0.277311   -0.340167   0.659469  1  
O  99.914237   46.952943   -23.889466   -0.187267   -0.949314   0.396170  8  
H  100.121845   47.594025   -24.561533   0.518381   0.644664   -0.811805  1  
H  94.054203   43.860156   -21.517884   0.710855   1.166256   -0.218283  1  
O  98.703959   35.149905   -3.507600   0.412402   -0.248404   0.195786  8  
H  102.363381   43.392845   -6.303757   0.170323   1.318277   0.109017  1  
H  99.217820   35.439172   -2.687287   -0.187552   -0.521458   -0.617271  1  
O  102.485032   39.697792   -16.541997   -0.952752   0.045277   0.509534  8  
H  102.060941   40.266533   -15.835681   0.293684   -0.313949   -0.616704  1  
H  103.211098   40.251154   -16.891355   0.398458   0.647330   -0.050791  1  
O  89.385984   42.308063   -12.289886   0.676224   0.350541   0.965130  8  
H  87.080150   44.555223   -13.232327   0.036617   0.867176   -0.964353  1  
H  88.564459   42.869031   -12.264343   0.544317   0.231547   -0.307695  1  
O  96.350345   35.587267   3.726430   1.281104   0.523480   0.430153  8  
H  95.667929   34.849132   3.678819   -0.095974   0.038520   -0.581548  1  
H  95.678106   26.044708   6.710533   0.200413   -0.127287   -0.134712  1  
O  91.165241   36.549286   1.087548   0.565223   0.160922   -0.173162  8  
H  91.571123   35.912177   1.758735   -0.511552   -0.271258   0.000349  1  
H  90.255224   36.781913   1.348557   0.084788   -0.046618   0.341100  1  
O  87.317693   49.706703   -23.118235   -0.295233   -0.138296   1.087369  8  
H  87.844293   49.214728   -22.392854   -0.527946   0.347706   -1.091420  1  
H  97.772911   42.410320   -17.102660   0.177912   -0.013362   0.707792  1  
O  91.008510   43.469723   -7.384775   0.742868   -0.094171   0.116700  8  
H  100.366392   46.989755   -5.922965   0.112699   0.126622   0.402820  1  
H  90.214336   43.885863   -7.043089   -1.158349   0.421447   0.982007  1  
O  98.369693   43.038832   2.507524   -0.061433   0.705837   -1.865801  8  
H  98.565050   43.516147   1.600511   -0.355469   -0.795301   1.442301  1  
H  92.154770   39.427494   -4.276854   -0.726939   -0.419383   -1.169798  1  
O  101.796253   42.402960   -8.516102   0.493521   0.758519   0.550819  8  
H  103.233485   40.073776   -6.634720   0.151282   -0.293521   -0.035791  1  
H  101.599825   42.316073   -7.525022   -0.237818   0.242593   -1.086155  1  
O  90.148865   31.991997   3.000961   -1.014872   -1.942712   0.079796  8  
H  88.106607   32.530185   0.262254   -0.076501   -0.476456   -0.446949  1  
H  89.265277   31.533904   3.339065   1.631051   0.744648   -0.663687  1  
O  98.584330   30.382079   -14.121384   0.416675   0.850194   0.888425  8  
H  104.497895   28.121851   -16.574143   -0.252527   0.591500   0.963863  1  
H  97.365931   34.858733   -14.387763   0.362627   -0.135275   0.065305  1  
O  90.664584   20.721429   -19.155496   0.020858   0.722798   -1.034154  8  
H  93.319133   39.905704   -3.478610   -0.685215   0.189925   0.502813  1  
H  90.594931   21.742316   -19.333121   -0.091844   -1.456256   -0.040499  1  
O  88.309939   34.074940   -17.043095   -0.812005   0.048711   1.740779  8  
H  87.025393   42.968427   -13.576684   0.013555   0.957598   0.895230  1  
H  88.667092   33.297128   -17.505260   0.414246   -0.672349   -0.360340  1  
O  76.856496   35.811352   -9.318115   1.322180   -0.465127   -0.929877  8  
H  76.381882   36.622190   -9.526457   -0.934747   1.049862   0.006943  1  
H  81.568640   38.316239   -6.557255   -0.678383   0.684911   0.750062  1  
O  92.802413   37.009670   -30.763020   -1.537338   1.813658   1.505442  8  
H  86.342226   41.238440   -34.355193   0.121562   0.762600   0.374608  1  
H  92.711384   37.941117   -31.109386   -0.216085   -0.363460   0.401577  1  
O  86.836975   41.398164   -0.171276   1.601778   0.457092   -0.036407  8  
H  83.861415   44.245273   -0.656294   -0.434797   -0.032701   -0.326356  1  
H  87.158476   40.767732   0.515267   -0.079558   -0.284844   0.430707  1  
O  89.061790   39.862117   -5.662575   -0.058326   0.981479   0.081614  8  
H  87.628275   31.576200   -7.531111   -0.342864   0.802977   -0.022283  1  
H  84.216521   45.208856   -2.936457   2.651017   -0.452426   -1.631697  1  
O  93.772972   42.963569   -21.329993   -1.116965   -0.984128   0.137799  8  
H  92.787161   43.078263   -21.236216   -0.060669   -0.071162   -0.270191  1  
H  101.994663   29.159473   -22.931220   -0.369738   -0.761037   0.073168  1  
O  95.141710   45.618787   7.626827   -1.715342   -0.783741   -0.771639  8  
H  89.674940   47.090624   1.610116   0.308726   -0.440645   0.962434  1  
H  90.608794   45.510593   2.395416   -0.456985   0.792997   0.794788  1  
O  92.672960   38.698955   -21.058800   -1.664355   0.537412   -0.383005  8  
H  102.589717   40.801759   -11.850493   1.624950   1.359517   -0.033099  1  
H  92.461016   39.547052   -21.540396   0.043689   -0.805882   0.159058  1  
O  85.348259   49.559425   -20.819228   -1.451291   0.098104   -0.790752  8  
H  84.706368   49.005839   -21.426022   1.035899   1.013502   0.738692  1  
H  93.563703   38.849375   -20.716368   1.172624   -0.100156   0.277884  1  
O  87.382183   46.162701   -14.405165   1.396725   0.119135   0.208846  8  
H  86.585878   46.568986   -14.081156   -1.416585   0.454772   0.100009  1  
H  83.534292   37.099577   -18.550448   0.047532   -0.190953   0.005351  1  
O  93.581809   35.840424   -22.025743   -0.138596   0.382876   -0.066935  8  
H  91.448115   44.117379   -13.667946   -0.376390   -0.179740   -0.361274  1  