288
energy=-47940.75262217 cutoff=-1.00000000 nneightol=1.20000000 pbc="T T T" Lattice="14.2067 0.0 0.0 0.0 14.2067 0.0 0.0 0.0 14.2067" Properties=species:S:1:pos:R:3:forces:R:3:Z:I:1
O 6.102411 1.888820 10.888271 -0.970145 -0.202986 -0.216004 8 
H 6.061264 0.923172 10.694075 0.418281 0.368118 0.337466 1 
O 8.717322 6.403380 4.372221 -0.369111 0.012603 0.470969 8 
H 7.740145 6.466664 4.530987 0.776204 0.041767 0.276324 1 
O 7.948178 10.351899 11.801792 2.637314 1.597510 0.949014 8 
H 7.339596 9.794125 11.370459 -1.771908 -1.502695 -1.233591 1 
O 3.136628 1.495238 5.626799 -0.529635 -0.601666 -0.203422 8 
H 2.323335 1.389786 5.078836 0.339940 0.202791 0.433820 1 
K 12.763351 6.179903 3.474497 -0.023663 -0.411063 0.297548 19 
K 4.776172 0.761528 13.458794 -0.036829 -0.155863 0.130856 19 
K 8.254303 5.291629 1.591440 0.042210 0.354641 -0.030274 19 
K 7.074664 4.030177 6.784801 -0.297353 -0.143138 -0.037121 19 
O 1.309555 -0.962122 3.287294 1.277025 0.527761 -0.299376 8 
H 0.496043 -0.703336 2.772864 0.397726 0.201414 -0.062270 1 
H 2.137815 -0.529218 2.858343 -1.422794 -0.394505 0.266002 1 
O 5.979386 12.494801 -0.934999 1.810668 -0.687829 -0.896939 8 
H 6.476966 12.323982 -0.074434 -0.335326 0.165065 -0.561550 1 
H 6.705350 12.282073 -1.634477 -1.608727 0.324497 1.446651 1 
O 4.084832 4.452406 6.070361 -0.338792 0.954951 1.299329 8 
H 3.805857 4.505376 7.054210 0.108049 -0.068714 -1.684648 1 
H 3.926727 3.525987 5.822916 -0.241229 -0.257442 -0.079189 1 
O 11.038731 4.214226 8.599536 0.398492 0.189200 -0.597375 8 
H 10.825001 3.285353 8.430744 -0.559928 -0.572107 0.503517 1 
H 11.801156 4.273122 7.981402 0.256116 0.719493 0.093006 1 
O 9.025321 10.138027 0.442416 -0.361024 -0.827338 -0.168654 8 
H 8.633420 9.879877 -0.438595 0.025504 0.614726 0.579093 1 
H 9.121911 9.180668 0.926166 0.078557 0.744134 -0.996827 1 
O 13.431016 3.887872 10.409921 -1.570238 -1.514770 -0.803194 8 
H 13.820780 3.239096 9.722087 -0.208429 0.855123 0.548531 1 
H 12.429786 3.640866 10.287585 1.920424 0.729671 0.384132 1 
O 6.168141 7.494081 6.088436 0.968026 -0.331367 -0.461883 8 
H 6.578934 7.587512 6.991780 -0.897154 0.360977 -0.330838 1 
H 5.197390 7.405577 6.057658 0.019402 0.254601 0.571854 1 
O 7.001463 7.326501 10.585433 2.375504 -0.587736 0.021296 8 
H 7.859061 6.783499 10.405914 -1.309053 0.663066 0.729514 1 
H 6.376636 6.719042 10.163451 -0.737553 -0.611971 -0.185536 1 
O 5.685760 11.107513 8.572532 -0.005018 0.928932 -0.395083 8 
H 5.733697 12.059860 8.275692 0.245787 -0.858599 0.313585 1 
H 4.836316 10.764753 8.178992 0.130342 -0.196799 0.132125 1 
O 6.954734 4.024150 12.620907 0.013451 0.227547 -1.672697 8 
H 6.667163 3.237327 12.081449 0.145844 -0.131604 -0.044782 1 
H 6.879379 3.682587 13.514573 -0.298194 -0.358506 1.343043 1 
O 0.182623 9.781882 5.703672 0.401327 0.093937 1.151464 8 
H -0.247799 9.577001 4.874223 -0.242643 -0.256262 -1.067206 1 
H 1.132620 9.575477 5.568104 -0.220644 0.054401 -0.162860 1 
O 7.142941 13.320567 10.411016 -0.303536 2.023496 -0.924639 8 
H 7.267300 13.567419 9.447376 -0.317533 -0.375916 0.736743 1 
H 7.508974 12.455868 10.513728 0.502539 -1.734292 0.029960 1 
O 10.236844 7.284854 7.961735 1.290949 -1.698846 0.515906 8 
H 9.346175 7.641058 8.053744 -0.754892 0.014502 0.509893 1 
H 10.444575 6.473556 8.555155 -0.997845 1.390632 -1.023544 1 
O 5.868434 5.053756 9.395549 -1.596925 0.017592 -0.198485 8 
H 6.575916 4.741031 9.965314 1.457107 -0.190273 0.234976 1 
H 5.113413 4.538001 9.787480 -0.130046 0.059983 -0.325376 1 
O 0.207237 2.852596 8.036761 1.238439 -0.840332 -0.242815 8 
H 1.157034 3.143563 8.071040 -0.517260 0.202591 0.034253 1 
H 0.356439 1.823812 8.109833 -0.448080 0.684041 0.017820 1 
O 4.802002 1.504985 3.867199 2.279762 -0.826796 -0.245104 8 
H 5.691456 1.063380 3.997882 -1.021912 0.383083 0.029820 1 
H 3.949086 1.343510 4.907143 -0.389860 0.312167 0.207142 1 
O 4.825443 2.246702 7.660700 0.736692 0.008365 0.887905 8 
H 4.306606 2.504799 8.499728 0.379387 -0.450311 -0.027441 1 
H 4.161519 1.939072 7.040846 -0.962147 -0.280762 -0.712118 1 
O 0.346580 5.969032 9.060269 0.365941 0.892876 -0.477995 8 
H 0.477000 6.749606 9.630141 0.159781 0.684958 0.003274 1 
H -0.185030 5.401927 9.630563 -0.974399 -1.339725 0.777292 1 
O 3.407407 8.412491 5.614938 -0.479515 -0.413996 -0.476353 8 
H 3.043712 7.516316 5.319026 -0.130710 0.883697 -0.079684 1 
H 3.419089 9.001467 4.818069 -0.089518 -0.586962 0.511970 1 
O -0.908968 8.029211 0.614165 0.378124 0.427487 -1.039491 8 
H -1.298977 8.947650 0.540434 -0.509953 -0.493343 -0.033881 1 
H -1.600732 7.336169 0.614915 -0.534107 0.065201 0.155400 1 
O 0.798073 10.194266 13.043283 -1.087973 0.005974 -0.663040 8 
H -0.176314 10.108295 12.800523 1.246425 -0.108958 -0.043435 1 
H 1.276408 10.209833 12.179257 -0.114195 0.061212 0.087268 1 
O 0.415392 3.788235 5.095332 0.485959 0.585678 -0.933401 8 
H 0.489943 3.508471 6.019900 0.189901 -0.463783 0.615409 1 
H 1.188256 4.394060 4.904356 -0.601003 -0.279715 0.326627 1 
O 9.432139 7.754152 1.325101 0.368014 0.722933 1.227652 8 
H 9.828724 8.207819 2.137328 -0.065731 -1.024107 -1.118214 1 
H 9.714723 7.700093 -0.597842 -0.072057 0.177517 0.728805 1 
O 2.836058 10.642591 10.683866 0.058687 0.634788 0.999629 8 
H 3.717797 10.255074 11.055078 -0.491077 0.004267 -0.433547 1 
H 2.714552 10.420686 9.755214 0.418502 -0.412235 -0.765132 1 
O 11.460669 10.996956 6.430015 -0.535794 0.234953 -0.365471 8 
H 11.900208 10.149449 6.652798 0.273747 -0.007503 0.120605 1 
H 11.345001 11.027727 5.444906 0.393601 -0.202339 0.418423 1 
O 7.213703 8.479120 2.852640 -0.164468 0.226243 -0.817497 8 
H 7.879957 8.323217 2.107263 -0.350590 -0.257935 0.254594 1 
H 7.657349 8.091932 3.618034 0.623971 -0.409287 0.600211 1 
O 4.931755 8.689663 0.508357 0.163099 -0.394001 0.349721 8 
H 3.979012 8.511452 0.431711 -0.755956 0.270116 -0.864821 1 
H 4.909093 8.554790 1.501371 0.505968 0.201819 -0.183584 1 
O 9.617948 4.644560 5.933559 0.218521 1.123781 1.125846 8 
H 10.042957 4.957899 6.794838 -0.487552 -0.407399 -1.195014 1 
H 9.212851 5.584327 5.364847 -0.005463 -0.464216 -0.619668 1 
O 11.515707 5.865409 0.909686 -0.558460 0.953689 -0.911605 8 
H 10.662415 6.415453 0.992823 0.621763 0.096303 0.226382 1 
H 11.662971 5.862714 -0.088648 -0.176500 -0.698574 0.524729 1 
O 8.079949 1.062625 4.851323 1.276350 0.457330 0.479002 8 
H 8.133493 0.185187 5.308308 -0.132553 0.169252 -0.294649 1 
H 8.968337 1.493040 5.096650 -1.303094 -0.535724 -0.209824 1 
O 4.352566 5.057641 12.072116 1.046708 0.028447 0.686994 8 
H 5.327744 5.016820 12.357205 -1.137868 -0.277013 -0.297044 1 
H 4.050906 4.135183 12.223883 -0.172568 0.108573 -0.203098 1 
O 1.011368 0.464343 11.252621 0.452886 -0.230281 0.807479 8 
H 0.600118 -0.397498 11.528501 0.315337 0.365365 -0.275171 1 
H 1.999439 0.358265 11.392727 -0.808181 -0.516433 -0.578847 1 
O 1.997550 8.841866 0.713553 1.161471 -1.534439 1.222003 8 
H 2.139957 7.844865 0.626197 -0.159929 0.782097 0.197265 1 
H 1.593276 9.124570 -0.114319 -0.743866 0.551362 -0.889609 1 
O 3.378114 0.674441 1.942506 1.669077 -1.862505 -0.211622 8 
H 4.151522 0.726197 2.658544 -1.046297 0.468140 -0.595852 1 
H 2.753781 1.292490 2.282885 -1.244084 1.361812 0.392871 1 
O 2.677407 6.054031 0.803933 0.696461 -0.465744 -1.343389 8 
H 1.775923 5.597374 0.900157 0.217404 -0.076560 0.151890 1 
H 3.107560 5.637395 -0.015221 -0.753267 0.594937 1.208166 1 
O 0.375758 4.818200 1.353316 0.199819 0.236468 1.189107 8 
H 0.622506 3.922627 1.780102 -0.445287 0.521352 -0.644277 1 
H -0.065301 4.641474 0.506390 0.022106 -0.415669 -0.414517 1 
O 2.141224 6.133987 4.530041 -0.565185 0.405157 0.450602 8 
H 2.289105 6.476112 3.624005 0.302245 -0.491752 0.033029 1 
H 2.813011 5.479730 4.816614 0.781217 -0.131590 -0.381145 1 
O 3.746019 7.243564 9.425584 -0.481840 -0.002054 -0.833067 8 
H 3.180203 6.618587 8.889215 0.114624 0.019429 0.227111 1 
H 4.519111 6.672669 9.555640 0.468246 -0.246187 0.218083 1 
O 12.365109 9.320856 11.599247 -0.394382 0.774365 0.715438 8 
H 11.715076 8.844521 12.181445 0.328694 -0.163292 -0.677275 1 
H 12.646482 8.778872 10.853840 0.276164 -0.819396 0.053779 1 
O 12.429360 8.729994 7.919030 0.824581 0.568918 -0.550642 8 
H 11.626158 8.188869 7.973924 -0.939283 -0.442182 0.409735 1 
H 12.885724 8.337551 7.149469 0.407670 0.026791 -0.128603 1 
O 6.783460 10.273197 4.892297 -0.053560 0.429496 -1.096549 8 
H 6.375672 9.658221 5.518006 -0.164596 -0.624108 0.251312 1 
H 6.608182 9.913004 3.960742 0.493537 0.443447 1.199976 1 
O 11.668055 1.427010 9.579050 -1.934146 0.838504 1.266360 8 
H 12.424585 0.882509 9.444305 1.677560 -1.176996 -0.295198 1 
H 11.376712 1.269179 10.533934 0.233716 0.460434 -1.187720 1 
O 4.939753 9.520697 11.750171 0.416512 -0.348365 0.793170 8 
H 5.138505 9.943115 12.619742 0.020703 0.111854 -0.247697 1 
H 4.550646 8.632155 12.036219 -0.048587 0.765630 -0.388258 1 
O 2.437530 2.585886 12.875842 -0.837941 -1.573779 0.008429 8 
H 1.698420 3.273553 12.914094 0.397650 0.254585 0.139959 1 
H 1.853721 1.754395 12.901079 0.936275 1.193774 -0.133828 1 
O 10.767655 1.574669 6.080395 0.642925 -0.626402 -0.803267 8 
H 11.230062 1.453743 6.942206 -0.051066 -0.387902 -0.533656 1 
H 11.199298 1.004252 5.348072 -0.535070 0.678490 1.206649 1 
O 13.599101 0.275110 1.789547 -1.077202 0.290078 0.607800 8 
H 12.719855 0.443915 2.281860 0.686589 -0.175070 -0.747622 1 
H 13.368886 -0.200129 0.946124 0.037951 -0.042352 0.130793 1 
O 0.197557 11.946415 10.568978 -1.779507 -1.060757 -0.144202 8 
H 1.094455 11.647995 10.408110 0.960373 -0.175701 -0.155065 1 
H -0.317067 11.117586 10.269630 0.790162 1.486450 0.506280 1 
O 10.263059 2.613831 12.016872 -0.872769 -0.165432 -0.191928 8 
H 9.410980 2.296209 12.435764 0.674462 0.024599 -0.527549 1 
H 10.743105 2.937289 12.800584 0.192946 -0.089569 0.610042 1 
O 10.046201 7.774590 12.689938 -0.527909 0.781471 -1.054646 8 
H 9.366476 8.333016 12.207735 0.629003 -0.626808 0.524220 1 
H 8.802131 10.388782 11.243608 -0.761712 -0.070266 0.139515 1 
O 7.310939 8.683016 8.355142 0.552524 -0.596390 0.234959 8 
H 7.258796 8.171117 9.233435 -0.221049 0.745974 -0.447114 1 
H 6.697482 9.441949 8.465004 -0.191342 0.454872 -0.047576 1 
O 3.136270 11.757302 1.074143 -1.935232 0.398795 -0.041989 8 
H 2.765142 10.854077 1.040627 0.641128 -0.872998 -0.196633 1 
H 2.232674 12.188235 1.180322 1.338723 0.286582 0.103404 1 
O 3.603385 -1.140073 6.657579 -0.145759 -0.723815 -0.012966 8 
H 3.190900 -0.323000 6.304966 0.110563 0.561867 0.047188 1 
H 4.288097 -0.856144 7.297783 0.039643 0.070481 -0.186523 1 
O 0.371180 7.041144 12.261833 0.362701 -0.030222 0.228302 8 
H -0.089313 7.611750 12.938588 0.508158 -0.457381 -0.317275 1 
H 1.336729 7.316919 12.250719 -0.659864 0.150006 0.161221 1 
O 9.431103 12.546854 3.607092 0.962259 -0.039133 0.369880 8 
H 8.894161 12.327128 2.831747 -0.654987 -0.010773 -0.441275 1 
H 8.838911 12.607426 4.402256 -0.126191 0.042328 -0.118565 1 
O 0.411850 0.325948 8.663729 0.202884 -0.779979 0.820241 8 
H 0.568677 -0.575645 8.289264 -0.005254 0.126133 -0.108680 1 
H 0.740439 0.218795 9.635545 -0.376599 0.526474 -0.992581 1 
O 0.452847 9.056011 9.452494 2.738109 0.111939 0.611226 8 
H -0.277875 8.876326 8.884133 -1.764434 -0.223182 -1.301902 1 
H 1.219247 9.176057 8.811759 -0.874490 0.147943 0.751387 1 
O 9.251517 11.258155 7.867847 -0.240383 -1.561785 -1.011962 8 
H 8.684224 10.433368 8.126883 1.057708 1.420143 -0.745695 1 
H 10.045094 10.930234 7.225761 -1.055666 0.659844 1.022569 1 
O 0.914658 2.554378 2.546905 0.084525 -0.109706 0.891039 8 
H 0.643068 2.777704 3.496306 -0.030690 -0.408678 -0.739506 1 
H 0.358024 1.804347 2.196624 -0.075860 0.036824 0.189979 1 
O 7.472683 12.259712 1.448232 -0.267230 -0.682750 0.800409 8 
H 6.695536 12.124730 2.116231 0.644835 -0.308502 -0.804300 1 
H 7.899445 11.352042 1.260026 -0.254373 0.582618 -0.118558 1 
O 3.458349 -0.750696 10.636953 0.785128 -0.501912 0.160124 8 
H 4.439779 -0.622463 10.652177 -0.600956 -0.314754 -0.173155 1 
H 3.344515 -1.761926 10.606008 0.006270 0.717763 0.165951 1 
O 8.097779 0.637100 12.832888 0.404146 -0.083097 0.296910 8 
H 8.643354 0.134617 13.463879 -0.025510 0.263749 0.622726 1 
H 8.296803 0.117677 12.036145 -0.498756 0.092067 -0.777682 1 
O 11.679097 5.583422 12.214598 -0.286104 1.155684 0.298827 8 
H 11.053210 4.913676 11.911210 -0.339163 -0.729814 -0.181509 1 
H 11.088971 6.394302 12.204479 0.419150 -0.394329 -0.072556 1 
O 5.323178 5.245463 2.321419 0.237406 -0.079372 0.004066 8 
H 4.833836 5.776075 1.661809 0.100370 0.128461 0.046825 1 
H 4.607426 4.695838 2.746433 -0.531642 0.120975 0.135717 1 
O 12.987422 5.803663 6.677643 -0.420017 -0.222565 -0.336225 8 
H 13.422432 5.079105 6.185276 -0.178511 -0.079272 -0.373320 1 
H 13.610355 5.950074 7.402212 0.440355 0.319490 0.778381 1 
O 6.583184 6.565719 -0.058734 -0.024196 -0.549689 -1.046728 8 
H 5.944416 7.298583 0.083346 -0.326810 0.830635 0.387382 1 
H 6.414862 6.353358 -1.006600 0.479732 0.091596 0.493861 1 
O 13.300906 12.642865 -0.482843 0.474716 0.486466 -0.295206 8 
H 14.063153 12.430638 -1.070359 -0.421755 -0.165679 0.290970 1 
H 12.830417 11.793180 -0.346367 -0.081532 -0.041875 0.321263 1 
O 0.119634 8.102572 2.900066 1.565457 0.885010 0.613812 8 
H -0.280546 8.045665 1.999072 -0.561187 -0.206487 -0.525176 1 
H 0.921319 8.594470 2.574323 -0.212254 -0.237920 0.598507 1 
O 11.855425 10.405037 0.576876 1.543597 -0.038332 -1.037751 8 
H 11.751264 10.461800 1.534350 -0.631388 0.068632 0.880157 1 
H 10.991325 10.275389 0.152513 -1.000326 -0.015215 0.417454 1 
O 3.153962 7.611754 11.980818 -0.702131 0.042801 -0.326646 8 
H 3.053817 7.663175 10.972920 0.441758 -0.243108 0.855717 1 
H 3.459640 6.693722 12.144441 0.166087 -0.322939 -0.199348 1 
O 1.365504 11.612571 7.715486 -0.024292 0.253139 0.435896 8 
H 2.253397 11.935401 7.436938 -0.204862 0.111013 -0.235711 1 
H 0.840491 11.465759 6.907228 0.068625 -0.207154 -0.173178 1 
O 2.715520 11.248222 4.373651 0.139150 1.914708 1.310660 8 
H 2.039151 11.966632 4.026275 0.824837 -1.257883 0.190681 1 
H 3.132454 11.765983 5.158670 -0.718514 -1.045384 -1.144772 1 
O 6.166097 -0.180679 7.750650 0.986453 -1.530883 -0.451407 8 
H 5.650647 0.628869 7.747002 -0.691403 1.843978 0.247968 1 
H 6.567217 -0.242184 6.845973 -0.112637 -0.236222 0.551327 1 
O 10.125772 10.415607 10.102319 1.335989 -0.534877 0.491214 8 
H 11.047191 9.989076 10.239125 -1.551326 1.220799 -0.110080 1 
H 10.102804 11.080070 9.340117 0.139631 -0.838416 0.429205 1 
O 0.431208 4.235068 12.988395 -0.326734 1.425637 -1.287331 8 
H 0.478044 5.219828 12.693006 0.031031 -0.506449 0.668457 1 
H 0.003230 3.908996 12.155637 -0.485782 -0.336993 -0.048481 1 
O 9.472471 3.068778 2.846565 -1.789583 1.234539 2.261342 8 
H 8.480079 3.352926 3.254944 2.456276 -1.140225 -0.755872 1 
H 10.132015 3.371898 3.578633 -0.461476 -0.147270 -1.070527 1 
O 2.621949 4.845402 8.524369 0.880406 -0.682794 0.066982 8 
H 1.702614 5.142711 8.793938 0.166017 -0.031437 0.246633 1 
H 3.065704 4.217115 9.189667 -0.644068 0.408208 -0.219246 1 
O 11.070501 10.279902 3.565775 0.427542 -0.757701 0.341395 8 
H 10.350066 10.908710 3.780695 -0.305081 0.172275 -0.240798 1 
H 11.015940 9.473120 4.179176 -0.061771 0.638711 -0.530209 1 
O 7.940903 2.406710 9.057714 1.953188 0.845832 -1.848942 8 
H 7.291951 2.145754 9.725468 -0.956303 -0.854876 1.114208 1 
H 8.564838 1.699697 8.783219 -0.631268 0.051894 0.567510 1 
O 3.971549 2.832784 10.041257 -0.568400 0.363153 0.093155 8 
H 3.194045 2.531174 10.564406 0.370773 0.102848 -0.121236 1 
H 5.061469 2.274595 10.499215 0.453604 0.084005 0.118952 1 
O 5.244061 11.529765 2.808412 -0.045774 0.373083 2.126874 8 
H 4.498158 11.696487 2.205039 -0.788805 0.065474 -0.800391 1 
H 4.811112 11.760803 3.704888 0.782661 -0.500743 -1.457090 1 
O 8.439465 4.815939 10.366130 0.234680 -0.695146 -0.166777 8 
H 8.087608 4.536031 11.248239 0.463724 0.035344 0.082193 1 
H 8.743090 3.946090 9.939132 -0.446623 0.921552 0.457306 1 
O 3.629739 9.574520 7.896176 -0.060283 -0.135579 1.046618 8 
H 3.337876 9.248428 7.015701 0.039988 -0.148884 -0.363513 1 
H 3.978379 8.753720 8.337394 -0.271355 0.391843 -0.057820 1 
O 11.664604 3.892851 4.531474 -1.481978 -0.909305 1.464361 8 
H 11.864227 3.039235 5.022527 0.038234 0.951132 -0.801137 1 
H 10.793624 4.167415 5.151429 1.091383 0.204531 -0.731687 1 
O 5.980378 2.851048 0.665144 1.382166 -1.270861 0.893397 8 
H 5.639982 3.332531 1.437449 -0.525543 0.752218 -0.030584 1 
H 6.601725 2.201783 1.143936 -0.343830 0.260420 -0.701804 1 
O 7.842579 12.648577 5.793994 0.220861 -0.469299 0.277377 8 
H 7.378871 11.820522 5.445648 -0.102005 0.140833 0.156124 1 
H 8.410334 12.291050 6.544919 -0.338284 -0.038917 -0.056414 1 
O 4.525076 8.247049 3.104327 1.626694 -1.858848 -0.226793 8 
H 5.539750 8.013664 3.144504 -1.553904 0.338750 -0.012655 1 
H 4.541124 9.186940 3.231091 -0.014167 1.719657 0.127209 1 
O 10.964606 3.070170 0.488215 -0.980090 -0.351461 0.437573 8 
H 10.350622 3.167332 1.283743 0.553176 -0.352788 -0.632877 1 
H 11.736489 3.580678 0.743741 0.472153 0.472662 0.177137 1 
O 7.913252 0.825329 1.945899 -0.149864 0.529288 0.428422 8 
H 8.091656 0.852652 2.928368 -0.187341 -0.004817 -0.488504 1 
H 7.915739 -0.122364 1.711992 -0.164677 -0.333223 -0.080488 1 
O 11.001534 7.969698 4.999172 -1.072065 -0.100712 -0.870141 8 
H 10.817999 7.863932 5.938852 0.266022 -0.154895 0.921889 1 
H 10.086425 7.675440 4.666610 0.293198 -0.372545 -0.123166 1 
O 6.881554 3.547020 3.861292 0.178120 0.317219 -0.324800 8 
H 6.393881 4.339483 3.509683 0.127486 -0.428095 0.145591 1 
H 6.317236 2.754399 3.652700 -0.150453 0.344625 0.319676 1 
O 3.454281 3.705445 3.356173 1.466624 0.739862 1.265425 8 
H 2.740794 3.602783 2.759457 -1.470605 -0.526873 -1.394384 1 
H 3.940899 2.846742 3.468689 0.081697 -0.194802 -0.009043 1 
O 10.992215 0.683394 3.196996 -0.545157 0.425962 0.184594 8 
H 10.240152 1.349854 3.033670 0.998725 -0.605996 -0.137610 1 
H 10.541922 -0.198702 3.217922 -0.124391 0.094929 0.104269 1 
288
energy=-47940.72724008 cutoff=-1.00000000 nneightol=1.20000000 pbc="T T T" Lattice="14.2067 0.0 0.0 0.0 14.2067 0.0 0.0 0.0 14.2067" Properties=species:S:1:pos:R:3:forces:R:3:Z:I:1
O 5.914903 1.756215 10.581469 0.850618 0.082378 0.042989 8 
H 5.867783 0.863003 10.162896 -0.211211 0.316623 0.295383 1 
O 8.551375 6.431124 4.334777 -0.697432 0.186571 1.277189 8 
H 7.955864 6.797436 5.076479 1.086918 -0.571760 -1.151846 1 
O 8.343203 10.356894 12.116021 -1.808501 -0.436900 -0.989279 8 
H 7.459449 9.984044 11.704799 1.833598 0.826291 1.129347 1 
O 2.980717 1.148083 5.619250 -1.813311 -0.017498 1.176371 8 
H 2.009046 1.079834 5.393537 1.390402 0.146958 -0.253021 1 
K 12.751389 6.361743 3.274344 0.162260 0.161295 0.166017 19 
K 4.696543 0.933348 13.414913 0.043670 -0.153169 0.015102 19 
K 8.504667 5.344819 1.970808 -0.482305 0.057558 -0.130812 19 
K 6.773405 4.100640 6.591936 0.065183 -0.144308 0.355168 19 
O 1.335699 -0.919947 3.649313 -0.155105 0.947374 -1.428303 8 
H 0.460424 -0.583970 3.231172 1.475357 -0.563991 0.435947 1 
H 2.072085 -0.491134 3.075495 -1.394103 -0.372126 0.831437 1 
O 6.292471 12.109606 -0.619422 1.325752 0.933821 0.003403 8 
H 6.475806 12.052903 0.375232 -0.072431 0.121590 -0.901211 1 
H 7.184929 12.461193 -0.954768 -1.491987 -0.492535 0.486258 1 
O 3.888195 4.793915 6.138270 -0.906758 0.782976 1.433381 8 
H 3.411806 4.760747 7.073000 0.544404 -0.282106 -1.606272 1 
H 3.761209 3.928301 5.725771 -0.083164 -0.630457 0.008628 1 
O 11.303412 4.429617 8.515456 0.582784 0.845062 -0.480648 8 
H 11.215156 3.486310 8.378152 -0.743186 -1.493191 0.386396 1 
H 11.829813 4.640695 7.688210 0.040506 0.730105 0.216922 1 
O 9.119743 10.719273 0.456848 -0.013042 0.108070 -0.671326 8 
H 8.722053 10.796629 -0.458706 0.246881 -0.175105 0.171437 1 
H 9.381749 9.699653 0.481073 -0.321523 0.262723 0.602035 1 
O 13.164521 3.803621 10.407694 0.291933 -0.298963 -0.274119 8 
H 13.542029 3.198456 9.738029 0.449371 -0.100579 0.035206 1 
H 12.439874 4.182206 9.855073 -0.575011 0.305923 0.103469 1 
O 6.444172 7.717316 6.420773 -1.110742 0.990053 1.921428 8 
H 6.837122 8.257497 7.202333 -0.024025 -0.934868 -0.689895 1 
H 5.455292 7.705334 6.686032 1.293332 -0.180424 -0.790655 1 
O 7.891420 7.766805 10.925395 -0.830137 -2.183060 -0.359236 8 
H 7.848902 6.732775 10.786279 0.823430 1.649454 0.182886 1 
H 6.940392 7.985707 10.922235 -0.135055 0.370590 0.096688 1 
O 5.924065 11.088413 8.924649 -1.153562 1.778554 -1.011816 8 
H 5.725887 11.910197 8.364296 0.816900 -0.660670 0.827949 1 
H 5.090334 10.597176 8.703168 -0.150205 -0.565237 0.345077 1 
O 6.600130 3.560726 12.571202 0.010283 0.379162 -1.046345 8 
H 6.635444 2.709184 12.101956 0.008315 -0.243145 -0.682048 1 
H 6.734264 3.308047 13.500163 0.175282 0.068243 1.164423 1 
O 0.208342 9.163981 5.746839 1.136764 -0.033463 -0.742913 8 
H 0.292261 8.972776 4.753309 0.010400 0.253799 0.794238 1 
H 1.154034 9.289439 6.028368 -0.624635 -0.173615 -0.377978 1 
O 7.127010 13.646678 10.082021 0.394457 -0.001638 -0.123822 8 
H 7.062770 13.686663 9.094112 -0.193570 -0.071197 -0.097950 1 
H 7.080112 12.716595 10.336454 -0.206970 -0.603814 -0.293807 1 
O 10.385050 7.105132 8.299565 0.877519 -0.117687 -1.712884 8 
H 9.905449 7.560468 8.959450 -1.147483 1.484425 1.502901 1 
H 10.440457 6.230153 8.680070 0.349208 -1.468711 0.279978 1 
O 5.812320 5.036157 9.240119 0.889931 0.321945 1.218680 8 
H 6.540697 5.194913 9.918708 -0.372402 -0.093292 -0.943816 1 
H 5.194488 4.535256 9.807437 -0.550033 -0.346583 -0.139232 1 
O 0.589221 2.313053 7.815168 0.087852 -0.567544 -0.040442 8 
H 1.460615 2.525312 8.192800 0.202078 0.385087 -0.067029 1 
H 0.499819 1.327500 7.991619 -0.392760 0.576918 0.167538 1 
O 4.738700 1.349868 3.922089 0.428347 -0.159599 -0.231010 8 
H 5.413774 0.626896 3.989484 -0.645826 0.674748 -0.223059 1 
H 3.693441 1.261164 4.850320 0.220609 -0.420484 -0.782167 1 
O 4.724271 2.031175 7.472049 -0.896726 0.320940 1.146388 8 
H 4.246726 2.303132 8.416921 0.550715 -0.703289 -1.886790 1 
H 4.012131 1.845183 6.765815 0.374972 0.185033 1.215684 1 
O 0.039218 6.483860 8.779085 -0.574610 -0.639389 1.055817 8 
H 0.245249 7.375305 9.173042 0.010876 0.023199 -0.318236 1 
H -0.564306 6.036760 9.444672 0.762242 0.400297 -0.525743 1 
O 3.432275 8.223805 6.099283 -0.490152 -0.523101 -0.375566 8 
H 2.928332 7.417676 5.775009 0.567467 0.959091 0.283380 1 
H 3.612158 8.774823 5.297824 0.004318 -0.386132 -0.176884 1 
O -0.974231 8.290723 0.216930 -1.893765 0.171674 0.634104 8 
H -1.410183 9.213752 0.384266 0.470311 -0.955902 -0.275488 1 
H -1.762805 7.669602 0.397817 1.360829 0.750853 -0.234742 1 
O 0.640096 10.258823 13.076794 0.502579 0.145857 -0.234448 8 
H -0.124088 9.766768 12.723496 -0.362224 -0.061066 0.067607 1 
H 1.328495 10.133707 12.383929 -0.085078 0.407300 -0.267080 1 
O 0.176974 3.479690 5.240855 1.034421 0.979207 -0.251409 8 
H 0.663085 3.040927 5.985949 -0.447412 -0.088341 0.317178 1 
H 0.759725 4.319722 5.020960 -0.618372 -1.033636 0.239125 1 
O 9.666906 8.327468 1.021245 0.524305 -0.547830 0.154222 8 
H 10.324759 8.659856 1.671588 -0.203780 -0.076875 -0.199346 1 
H 10.012626 7.798593 -0.606038 -0.412182 0.255295 0.177872 1 
O 2.783391 11.022544 11.131179 -0.305115 -0.390724 -2.139643 8 
H 3.403733 10.633585 11.759168 0.867018 -0.449927 0.112110 1 
H 3.003937 10.589685 10.214921 -0.274922 0.644045 1.813437 1 
O 11.662866 11.661797 6.073337 -0.358266 -0.261313 -0.403002 8 
H 11.966896 11.094390 6.809203 0.450420 -0.318088 -0.163702 1 
H 11.703205 11.075203 5.265427 0.123680 0.286074 0.396275 1 
O 7.578609 8.508347 2.948371 -0.215248 1.172782 -1.445681 8 
H 8.226547 8.716620 2.178271 -0.495603 -0.762013 1.168803 1 
H 7.907604 7.701487 3.427395 0.535286 -0.360111 0.093268 1 
O 5.174113 8.577776 0.139756 1.104745 0.680889 0.982165 8 
H 4.359981 8.913869 0.577526 -0.336385 -0.219990 -0.067476 1 
H 5.896367 8.828270 0.800908 -0.847768 -0.363889 -0.825796 1 
O 9.745426 4.545645 5.982667 -0.897941 1.501380 -0.099598 8 
H 9.973881 5.376214 6.511518 -0.124803 -1.153999 -0.585021 1 
H 9.163566 4.973305 5.232245 0.888917 0.057098 0.684041 1 
O 11.266030 6.068652 0.946179 0.455414 -0.086646 -0.479224 8 
H 10.593492 6.800431 0.874525 -0.281966 0.510264 0.122652 1 
H 11.520251 5.853881 -0.006784 -0.408595 -0.254475 0.315901 1 
O 7.837955 0.936709 4.953482 0.073407 -0.818077 -0.136472 8 
H 7.684751 -0.037398 5.135162 0.273997 0.837209 -0.185425 1 
H 8.817144 1.034424 5.141403 -0.273364 0.007168 0.133152 1 
O 4.222302 4.987544 12.515499 -0.700996 -0.230480 -0.414664 8 
H 5.014368 4.431007 12.682468 0.955751 0.072288 -0.058352 1 
H 3.631809 4.318215 12.090627 -0.244953 0.166848 0.116674 1 
O 1.542918 0.188208 12.196221 0.003746 -0.822604 -1.097645 8 
H 0.937333 0.498167 11.488860 -0.274311 -0.112694 0.286228 1 
H 1.925284 -0.594507 11.721757 0.002555 0.235057 0.377402 1 
O 2.233957 8.758062 0.700349 -0.505909 0.707680 -1.775055 8 
H 2.507913 7.811502 0.464543 -0.322110 0.512953 0.073678 1 
H 1.720241 9.176150 -0.104936 0.803885 -1.202377 1.528559 1 
O 3.011416 0.657535 1.779543 -0.299410 -2.412116 -2.114662 8 
H 3.581333 0.849527 2.515014 1.169502 1.199581 1.776253 1 
H 2.312256 1.270210 1.577568 -0.511799 1.137084 0.441172 1 
O 2.953729 6.024199 0.475948 0.257101 0.947905 0.617473 8 
H 2.105866 5.589487 0.685286 -0.223386 -0.343459 0.193591 1 
H 3.437014 5.498465 -0.194522 -0.021016 -0.263151 -0.576319 1 
O 0.419450 5.003248 1.196996 -0.187079 -0.698870 1.793081 8 
H 0.329176 4.122376 1.719047 0.304670 0.779028 -1.209027 1 
H 0.318360 4.844684 0.239559 -0.245568 -0.689482 -0.440768 1 
O 1.624172 5.692739 4.705231 -0.422989 0.005764 -0.437803 8 
H 1.570055 5.701020 3.717310 0.642487 0.110797 0.533725 1 
H 2.495976 5.306211 5.001843 0.208787 0.127002 -0.228205 1 
O 3.890908 7.034703 9.089889 0.962536 -1.098488 -0.372338 8 
H 3.210984 6.406912 8.713984 0.371993 0.342355 0.344905 1 
H 4.747507 6.459859 9.032494 -1.120092 0.687720 0.283475 1 
O 12.488031 8.737327 11.429405 -1.349772 0.434823 0.290977 8 
H 11.786398 8.194468 11.895419 1.097220 0.129653 -0.279631 1 
H 13.358134 8.301915 11.457196 0.162067 -0.764097 -0.118823 1 
O 12.399667 9.055352 7.366315 0.728446 -0.086671 -0.074962 8 
H 12.117764 8.218925 7.788617 -0.379007 -0.049464 0.044911 1 
H 13.216435 8.822633 6.803347 -0.814083 0.336839 0.221064 1 
O 6.408389 10.106740 4.965648 0.019789 -0.355692 1.088308 8 
H 6.452174 9.355608 5.652233 -0.339516 0.752261 -0.617783 1 
H 6.807897 9.612620 4.221794 0.439423 -0.138320 -0.955589 1 
O 11.091362 1.697875 9.382810 -1.446735 1.787640 0.719812 8 
H 11.885161 1.208958 9.393076 1.992961 -1.587835 -0.511814 1 
H 11.196619 2.198246 10.248058 -0.702939 -0.401647 -0.458821 1 
O 5.577459 9.965747 11.845951 -0.445363 -0.329984 0.258914 8 
H 5.844222 10.866720 12.125310 -0.113662 0.111868 0.299317 1 
H 5.317189 9.550094 12.721165 0.343227 -0.058116 -0.411386 1 
O 2.414991 2.531836 12.926369 0.009316 0.922635 0.838589 8 
H 1.536279 2.971369 13.110302 0.980679 0.072972 -0.294027 1 
H 2.202172 1.836470 12.292647 -0.126592 -0.646536 -0.107286 1 
O 10.479725 1.149012 5.597325 0.582215 -0.464882 0.749648 8 
H 10.895162 0.446854 6.146306 -0.377735 0.259949 0.270537 1 
H 10.971513 1.004798 4.763018 -0.037335 0.084153 -0.904653 1 
O 13.547193 0.333080 1.789605 -0.000756 -0.214200 -1.278652 8 
H 12.563471 0.574989 1.805625 0.753213 -0.394137 0.236111 1 
H 13.787873 0.017409 0.846631 -0.784633 0.174034 1.232279 1 
O 0.003559 12.237919 10.510176 -1.463755 0.772459 2.620033 8 
H 0.521338 11.569859 10.090830 0.926886 -1.383821 -0.456188 1 
H -0.226243 11.942611 11.460989 0.443330 0.358604 -1.950483 1 
O 10.320635 2.448314 11.931185 0.328242 0.531497 2.021793 8 
H 9.480986 1.967282 12.032663 -0.499681 -0.268104 -0.387832 1 
H 10.546201 2.600798 12.918630 0.167606 -0.144925 -1.312621 1 
O 9.813021 7.430842 12.693960 -1.113824 1.209807 0.004862 8 
H 8.925970 7.892095 12.414589 1.759379 -0.886367 -0.153434 1 
H 9.067555 10.187320 11.445262 -0.324893 0.159043 0.108660 1 
O 7.678631 9.313414 8.517008 1.807435 -1.502194 -0.208610 8 
H 8.226304 9.037462 9.307821 -0.826472 0.106155 -0.580023 1 
H 7.077965 10.034939 8.765033 -0.725735 0.942749 0.395488 1 
O 2.738387 11.594793 1.221544 0.660120 1.313206 0.092581 8 
H 2.335364 10.731294 1.078499 -0.705770 -0.427649 0.056642 1 
H 2.111564 12.333101 1.400585 -0.126105 -0.799398 -0.151344 1 
O 3.739631 -1.295400 6.591117 -1.528290 0.794500 -0.217958 8 
H 3.305703 -0.381608 6.410145 0.505933 -0.820368 -0.308823 1 
H 4.629045 -1.024498 6.874204 0.846189 -0.042661 0.333385 1 
O 0.546201 7.256630 12.272396 -1.971341 -0.587266 -0.198008 8 
H 0.035674 7.737187 12.977626 0.701035 -0.356819 0.447778 1 
H 1.485055 7.480964 12.219624 1.111986 0.494058 0.098657 1 
O 9.606004 12.455187 3.528466 1.059727 0.107071 -1.716854 8 
H 8.797615 12.176671 3.034233 -0.513572 0.156742 0.620330 1 
H 9.505271 12.439507 4.477599 -0.818690 0.025686 0.866985 1 
O -0.084383 -0.154275 8.629221 0.386049 0.549317 -1.712174 8 
H 0.346494 -0.801331 7.993660 -0.262344 0.218204 0.514843 1 
H -0.305685 -0.725210 9.370276 -0.131449 -0.576537 1.020122 1 
O 0.543784 9.167133 9.276800 -0.411675 1.274311 -0.984372 8 
H -0.282645 9.509932 8.777354 1.078839 -0.667764 0.617548 1 
H 1.321913 9.622239 8.832861 -0.690843 -0.611981 0.402440 1 
O 9.372818 11.332882 7.599537 1.326217 1.433551 -0.966891 8 
H 8.921630 10.503023 7.800542 -0.250288 -1.137025 -0.103820 1 
H 10.187155 11.261605 6.967775 -1.360728 -0.154527 0.843397 1 
O 0.637085 2.444521 2.729664 -0.210894 1.301105 2.384442 8 
H 0.326426 2.571250 3.740252 0.898954 -0.046874 -2.110371 1 
H 0.185814 1.626300 2.420415 -0.494058 -0.449296 -0.457776 1 
O 7.321210 11.918606 1.930465 -1.661735 -0.849491 0.134816 8 
H 6.390767 11.454582 2.123784 1.753390 0.832325 0.183341 1 
H 7.937426 11.294022 1.399343 -0.025012 0.061869 0.115317 1 
O 4.063909 -0.635565 10.301630 -0.421631 0.468073 -0.207306 8 
H 3.412258 -0.385549 9.608750 0.369809 -0.007179 0.199233 1 
H 3.823514 -1.552309 10.521017 -0.096025 -0.437820 0.093763 1 
O 7.851154 0.503412 12.380722 -0.308348 -1.064414 -0.831496 8 
H 8.554264 -0.164875 12.310239 0.858489 0.143684 0.787821 1 